#ITEM: NUMBER OF ATOMS

2000 atoms
2 atom types

#ITEM: BOX BOUNDS pp pp pp

0.299875 32.130125 xlo xhi
0.299875 32.130125 ylo yhi
0.299875 32.130125 zlo zhi

  Atoms

1	1	8.082452	21.776026	22.137941
2	1	25.701161	0.651386	28.737960
3	1	19.940076	11.679344	8.369661
4	1	16.143472	26.472124	11.947003
5	1	23.437853	19.799390	24.712112
6	1	3.800291	19.130980	21.319433
7	1	22.803987	23.691137	25.462775
8	1	9.619417	18.595211	18.024340
9	1	15.048028	16.961897	17.023898
10	1	21.782450	3.689334	31.134245
11	1	19.497837	18.781493	8.066492
12	1	6.584445	4.737169	31.813099
13	1	22.345050	11.915345	24.169887
14	1	4.050914	6.510956	5.486066
15	1	3.429015	30.676417	25.063556
16	1	25.993245	19.588805	24.122953
17	1	7.351203	26.491894	30.378767
18	1	15.524508	29.531806	6.343737
19	1	27.899180	18.362424	12.943812
20	1	2.985417	24.683480	8.591628
21	1	31.698563	15.310873	12.499208
22	1	23.583351	28.709866	13.509953
23	1	8.859367	29.351259	17.433412
24	1	20.576451	31.567191	18.514501
25	1	16.680093	29.378582	16.628090
26	1	23.230944	17.256818	28.136873
27	1	30.332552	28.668986	5.162867
28	1	25.092335	25.827107	14.649733
29	1	9.074502	29.009049	20.131306
30	1	18.031320	26.896976	16.368809
31	1	27.881905	3.056388	12.611408
32	1	25.694939	1.322338	31.270314
33	1	21.297495	3.760850	19.516664
34	1	26.214846	20.567270	3.584475
35	1	24.786295	13.004031	24.469428
36	1	5.871613	0.630884	1.553594
37	1	22.025261	18.899349	22.995472
38	1	18.118898	31.822395	1.167853
39	1	25.469694	17.540274	25.567314
40	1	23.675109	18.388602	17.696480
41	1	28.901606	0.586659	21.976819
42	1	17.278509	18.730875	6.766781
43	1	8.436444	26.569063	23.733917
44	1	24.480764	21.597706	14.920954
45	1	22.733408	16.126932	22.772497
46	1	16.246062	27.393127	4.854328
47	1	21.556241	19.211102	18.719169
48	1	16.961948	14.925477	16.454363
49	1	21.534123	9.545712	0.699074
50	1	25.091002	10.284651	2.873602
51	1	10.974426	28.192687	3.645190
52	1	1.380293	7.397861	19.413529
53	1	5.515506	8.381239	26.115849
54	1	5.928906	3.678311	9.676210
55	1	12.370789	16.370920	25.380622
56	1	26.333367	1.739160	20.638576
57	1	15.146072	14.370740	9.028714
58	1	18.767174	15.169746	23.600857
59	1	11.114809	22.342953	25.661773
60	1	21.062270	18.353865	2.204526
61	1	11.576503	17.627396	6.585657
62	1	9.078244	9.101377	15.003037
63	1	13.743806	28.196872	24.520295
64	1	5.143020	4.490930	19.358559
65	1	8.656539	13.266347	2.351559
66	1	24.594256	25.669299	8.819673
67	1	25.073043	6.515779	5.056136
68	1	30.083935	25.719414	8.373562
69	1	25.468251	31.174261	10.854010
70	1	19.074634	3.525232	11.348862
71	1	22.136276	25.509446	21.702966
72	1	4.576185	14.140856	1.221780
73	1	22.348609	2.403088	22.510313
74	1	2.285746	21.552751	14.373388
75	1	30.574013	2.858492	22.149367
76	1	24.019615	18.543497	6.759988
77	1	23.439211	8.448995	31.020583
78	1	23.147230	22.705038	16.927348
79	1	12.119752	24.440445	20.585957
80	1	1.029528	28.613052	15.428289
81	1	7.276485	19.570664	18.376770
82	1	0.727882	20.239514	30.066637
83	1	24.161470	11.267924	19.009061
84	1	10.576932	30.235462	10.982824
85	1	28.822527	30.552970	19.706271
86	1	13.009376	13.499932	3.010622
87	1	30.656482	6.979483	2.680009
88	1	23.355921	4.190799	1.730091
89	1	15.811425	17.652446	29.041027
90	1	14.414324	2.345985	4.658136
91	1	2.791645	3.240125	30.139179
92	1	0.795631	28.822740	20.027622
93	1	14.750604	15.662209	21.039774
94	1	7.936280	30.047707	11.031259
95	1	19.321014	14.640422	11.504993
96	1	1.258566	19.129902	11.085803
97	1	6.016308	18.656520	30.011860
98	1	10.144271	5.337835	9.966462
99	1	6.365014	30.048084	2.271135
100	1	19.464715	17.735460	13.086136
101	1	19.171650	11.813739	31.892737
102	1	21.296313	16.822444	31.943253
103	1	7.930149	18.936866	3.639244
104	1	7.044620	16.437697	26.152717
105	1	6.946416	25.070119	25.090010
106	1	19.993534	18.843156	21.495865
107	1	25.574700	4.130837	20.483575
108	1	22.600773	20.834936	13.318926
109	1	5.559654	23.465613	26.370183
110	1	4.853457	20.813279	12.015659
111	1	16.379076	3.367960	28.154416
112	1	13.482958	4.043347	24.807430
113	1	20.290316	1.575497	0.455958
114	1	19.984104	5.460244	30.416237
115	1	7.139729	11.861712	29.970360
116	1	10.606908	17.250077	23.632628
117	1	6.631412	7.771902	8.834194
118	1	20.826768	17.157988	27.177498
119	1	5.266078	29.328996	7.688737
120	1	30.283383	20.275300	7.212961
121	1	20.202126	8.651425	13.053674
122	1	23.335418	30.347257	3.510981
123	1	1.242210	15.648207	8.332193
124	1	2.977390	29.470914	8.389086
125	1	8.293002	16.214378	23.835421
126	1	1.030227	4.766775	31.477969
127	1	9.603138	4.541736	22.392832
128	1	0.617953	8.708009	3.132477
129	1	3.261084	0.413662	29.974329
130	1	23.595327	4.553381	18.788885
131	1	28.775570	5.351611	6.582908
132	1	19.541321	29.553445	19.614673
133	1	31.943711	4.632722	9.412813
134	1	3.806078	11.292419	10.701343
135	1	17.391551	5.086957	26.358553
136	1	2.150436	3.580603	15.302107
137	1	6.941396	15.862513	12.050778
138	1	12.054447	9.861516	31.668114
139	1	13.886233	0.729285	22.208805
140	1	26.770316	12.621080	9.437459
141	1	16.593777	4.618848	0.487539
142	1	31.999364	7.768515	15.144451
143	1	1.848963	26.528336	16.685480
144	1	27.438339	9.697741	2.952214
145	1	9.382986	24.090666	2.606427
146	1	6.678473	27.383658	2.842858
147	1	13.806368	18.274683	20.741281
148	1	6.186321	13.785131	10.002606
149	1	16.353321	6.152865	13.269990
150	1	16.706762	29.677134	27.135978
151	1	27.923696	7.600754	13.591597
152	1	7.458353	8.926147	13.092300
153	1	21.121697	11.050583	30.549244
154	1	29.042076	29.717277	21.992194
155	1	24.635082	15.597824	12.865444
156	1	6.504401	21.444518	16.637089
157	1	8.829359	26.177797	26.221156
158	1	21.100143	5.730948	3.032490
159	1	28.241898	12.873887	32.062007
160	1	27.893382	16.241324	2.750969
161	1	31.781704	18.683695	16.865771
162	1	31.468701	1.507473	4.377186
163	1	28.021201	21.142256	12.419005
164	1	10.370369	29.581904	15.341853
165	1	3.543389	23.137723	30.962520
166	1	4.329490	28.670524	2.084475
167	1	22.100275	9.871176	11.677531
168	1	19.188930	4.612730	18.108797
169	1	11.997430	17.906488	17.468005
170	1	6.357787	26.071477	16.519937
171	1	27.981741	29.740410	31.241847
172	1	14.326388	11.532477	11.843461
173	1	8.440207	15.302905	14.125087
174	1	3.089082	24.785611	3.193379
175	1	8.993357	5.906655	25.343700
176	1	27.019894	24.260554	23.153538
177	1	14.385460	15.347742	28.651959
178	1	21.918990	15.759419	29.720306
179	1	25.404576	11.310011	14.493305
180	1	21.812764	24.661263	4.985924
181	1	25.845745	7.698962	2.958326
182	1	16.311276	10.957721	6.434195
183	1	29.694776	25.266404	1.357656
184	1	23.111782	10.637240	29.084346
185	1	20.317100	26.717179	22.862177
186	1	4.254561	12.926815	3.349747
187	1	4.261746	16.436398	26.242256
188	1	5.829483	12.883903	24.568334
189	1	2.360179	27.236500	2.337913
190	1	9.319940	6.060706	27.851093
191	1	12.980126	7.577491	6.240880
192	1	26.834196	16.564767	20.166741
193	1	9.911703	10.287855	7.906643
194	1	17.998716	7.866073	14.398297
195	1	17.091840	14.562210	5.460664
196	1	31.254718	10.854525	4.189204
197	1	14.915030	30.829847	28.772477
198	1	26.708763	2.836025	29.503051
199	1	19.199125	9.127974	18.699374
200	1	24.435416	17.945038	23.071658
201	1	12.190053	15.598974	27.710823
202	1	16.305802	25.233874	29.493279
203	1	26.659653	31.879491	16.377461
204	1	18.026402	29.568057	9.698176
205	1	9.191123	0.294644	30.500444
206	1	16.345667	1.637986	8.683962
207	1	30.703422	0.576972	28.750345
208	1	17.592428	15.350366	9.504613
209	1	5.804368	11.929285	16.207159
210	1	21.492797	12.003918	15.526884
211	1	28.821628	26.010901	10.666178
212	1	23.762350	15.599977	3.733419
213	1	9.073656	17.675286	7.646809
214	1	14.110971	23.769220	3.527658
215	1	1.836238	26.763071	19.294092
216	1	10.589789	25.175482	17.673167
217	1	16.693284	22.282194	11.083793
218	1	17.880228	3.330795	9.179471
219	1	17.689752	10.793155	17.497633
220	1	6.533633	18.255503	25.020881
221	1	19.783861	21.937004	21.088702
222	1	17.046258	27.467640	30.759822
223	1	29.410568	8.237380	11.495469
224	1	29.522427	21.375479	3.037725
225	1	25.090212	25.909372	29.459236
226	1	7.189479	26.109229	9.566552
227	1	17.461433	31.693031	15.440309
228	1	7.006436	20.647464	31.558552
229	1	15.089835	3.110175	17.674235
230	1	1.644548	13.773757	12.230162
231	1	8.209750	30.544211	4.812161
232	1	31.882772	12.748993	2.502428
233	1	2.926903	0.591390	0.974560
234	1	6.479178	1.351480	16.284974
235	1	15.202018	2.993284	23.056546
236	1	13.382460	17.765353	8.232743
237	1	17.964041	31.575081	18.008365
238	1	2.898800	15.671922	24.015284
239	1	6.156100	7.686680	6.496985
240	1	1.457162	22.613304	18.645197
241	1	19.170232	21.939647	10.751489
242	1	18.771870	21.740854	27.872930
243	1	14.105352	9.341179	10.368073
244	1	2.431281	11.557511	22.290750
245	1	31.229684	1.324227	12.924136
246	1	7.943398	24.482082	7.621416
247	1	14.645875	15.052910	15.407349
248	1	10.546525	13.289142	11.657200
249	1	25.815449	23.581678	29.471283
250	1	24.875537	16.086547	21.449708
251	1	12.830370	10.863587	17.268929
252	1	14.849265	15.764015	12.904169
253	1	21.460340	9.701388	4.892642
254	1	10.738480	9.127396	17.310213
255	1	2.657568	5.080344	22.689296
256	1	12.863079	25.268454	5.475931
257	1	14.086067	25.668756	15.452647
258	1	20.983590	25.924990	31.230430
259	1	4.409208	27.985152	15.762155
260	1	6.126709	29.857775	24.500669
261	1	9.678785	29.677830	31.523839
262	1	10.439968	13.809111	28.143365
263	1	21.786110	21.300022	10.795749
264	1	9.969539	8.143627	3.020294
265	1	5.533112	24.584874	8.241270
266	1	2.005829	16.317756	30.611031
267	1	2.312523	22.764622	1.785287
268	1	29.839380	5.559192	22.355856
269	1	5.122179	12.006934	28.261526
270	1	5.595406	14.363052	17.281952
271	1	12.607910	20.447425	20.739521
272	1	16.749465	9.957987	15.305123
273	1	11.818458	5.223771	28.512627
274	1	9.749532	20.273241	26.923809
275	1	4.199737	0.957911	15.329483
276	1	25.986672	4.630301	13.693063
277	1	24.899406	25.286918	24.829619
278	1	2.380518	17.619489	17.224039
279	1	27.340075	29.627336	15.741916
280	1	7.898662	9.672489	10.197107
281	1	8.664761	12.040271	32.079568
282	1	26.558347	18.949129	21.602914
283	1	27.286835	15.007989	9.987055
284	1	18.327403	25.375072	23.355019
285	1	19.598487	7.056890	17.110856
286	1	2.309644	3.076887	1.117273
287	1	30.956818	1.866125	6.822126
288	1	29.484567	14.882798	11.175993
289	1	29.650939	2.714210	14.469522
290	1	6.992090	1.932221	22.478132
291	1	5.900263	2.516519	5.530656
292	1	6.262633	31.442198	6.435180
293	1	1.722705	2.543627	3.605109
294	1	29.832267	9.244815	2.810806
295	1	9.908220	12.741563	24.959880
296	1	23.200078	14.406618	31.864644
297	1	17.415519	14.413233	25.900363
298	1	18.902465	8.698219	26.961517
299	1	18.534592	7.602604	9.164455
300	1	13.302582	27.393707	1.132360
301	1	6.127154	2.104725	25.745439
302	1	4.926567	4.203957	26.487889
303	1	8.092147	15.312284	27.989813
304	1	8.018623	6.185773	6.096634
305	1	2.563813	16.029322	1.173291
306	1	3.983470	25.179137	15.783507
307	1	1.154269	23.964251	4.613287
308	1	10.859383	18.624858	31.557327
309	1	1.202786	11.933969	0.364151
310	1	3.044874	25.380962	23.458114
311	1	27.566096	11.284692	7.129296
312	1	2.251238	15.752095	13.540775
313	1	10.673348	30.786459	3.781556
314	1	17.558023	29.587316	31.942355
315	1	21.839264	11.418779	6.585996
316	1	13.641787	11.178809	6.673659
317	1	4.387200	31.409233	12.997965
318	1	14.658378	11.856419	18.852906
319	1	13.100700	19.235684	10.149892
320	1	23.211305	31.833449	18.570136
321	1	26.928534	21.548153	22.627775
322	1	29.207710	16.552797	19.361532
323	1	29.028613	4.513011	24.530863
324	1	12.864462	29.308123	28.702450
325	1	12.034349	1.655140	20.225316
326	1	1.322479	6.827246	9.696466
327	1	12.114338	8.974831	24.842309
328	1	28.575262	27.758382	8.580751
329	1	19.285308	14.912685	4.178443
330	1	29.151626	8.647841	17.950199
331	1	7.148431	23.096909	3.454142
332	1	4.648892	10.314767	3.157907
333	1	10.895546	17.858287	27.192094
334	1	1.840263	30.168071	21.739774
335	1	7.542850	28.691972	22.660463
336	1	28.928137	15.589303	6.553635
337	1	12.366952	2.641797	29.685760
338	1	20.643716	11.283611	22.261221
339	1	7.685324	29.223494	6.862127
340	1	25.849486	24.550534	10.772530
341	1	10.940858	14.124906	9.353453
342	1	24.406717	1.364902	10.065093
343	1	29.444175	0.622736	2.971638
344	1	17.497382	17.925423	9.357949
345	1	11.442706	20.558895	1.639272
346	1	7.410184	16.500267	30.226884
347	1	27.473074	20.084674	27.800459
348	1	28.332214	16.645742	14.962871
349	1	7.029028	2.865002	29.885362
350	1	16.934111	31.720583	12.732751
351	1	22.647848	7.886874	21.517781
352	1	1.856691	30.725062	31.296688
353	1	8.138956	16.087075	2.530881
354	1	22.490985	10.284495	26.427365
355	1	17.891731	2.276928	0.489476
356	1	20.918717	13.419263	13.510832
357	1	17.723417	8.629432	2.056777
358	1	21.618226	12.318531	1.252933
359	1	15.951677	29.695113	24.662016
360	1	2.844128	3.985488	27.650033
361	1	10.662966	26.528946	5.373208
362	1	25.437820	2.559572	27.193615
363	1	24.664784	9.877498	12.318568
364	1	17.321239	25.631468	25.637414
365	1	27.806077	25.247566	3.887359
366	1	28.765553	10.211593	4.988682
367	1	28.378812	19.591768	23.312032
368	1	27.517958	20.554708	1.340521
369	1	2.500574	1.987782	19.432155
370	1	27.695646	3.393672	19.015958
371	1	25.180879	24.414117	27.031957
372	1	6.447514	9.539874	15.495706
373	1	29.225456	0.663904	5.504137
374	1	25.622113	24.622384	0.449929
375	1	19.274269	16.317070	30.570649
376	1	27.975252	1.520327	27.586683
377	1	5.724251	18.736821	13.769910
378	1	7.320915	2.374249	11.381756
379	1	3.119045	0.433289	21.346591
380	1	11.802161	4.907840	30.948190
381	1	16.834761	27.198337	9.754656
382	1	5.695347	15.169467	7.921745
383	1	3.343970	28.766404	19.971989
384	1	20.614696	6.597175	22.215112
385	1	30.633121	24.230510	21.040715
386	1	25.673931	28.818489	11.748108
387	1	15.161778	5.234341	19.404080
388	1	22.553797	25.960769	24.115588
389	1	6.817391	30.375919	13.072668
390	1	29.334195	4.901345	9.030298
391	1	18.054410	23.195459	8.781172
392	1	21.266518	8.021570	26.160035
393	1	14.034406	25.681407	19.879248
394	1	27.532197	24.859324	15.220895
395	1	16.719491	1.316071	19.112064
396	1	21.032909	5.148109	11.678064
397	1	4.193821	27.366998	11.894736
398	1	6.481515	3.929644	15.982208
399	1	20.735275	4.589400	25.702820
400	1	21.108346	29.281799	12.812797
401	1	23.049337	11.736783	13.039015
402	1	29.932676	30.016577	12.323696
403	1	18.270655	12.574342	10.045034
404	1	13.732934	3.012040	15.588969
405	1	21.727856	28.379560	7.722872
406	1	16.012143	16.431796	1.775787
407	1	3.600546	13.847564	25.650689
408	1	17.452055	3.909708	13.271287
409	1	26.844909	11.155216	30.817428
410	1	9.416510	4.675938	31.997167
411	1	8.296739	17.587438	19.897551
412	1	4.490897	16.838317	12.602753
413	1	16.463886	2.740961	30.434427
414	1	10.608922	23.912384	4.867392
415	1	0.644400	15.379660	2.878088
416	1	20.957210	25.721830	11.216978
417	1	24.101636	11.894455	16.494898
418	1	7.850090	19.791613	8.652205
419	1	15.278257	7.564266	18.411903
420	1	22.822418	14.369378	24.815241
421	1	14.656428	25.110870	1.514524
422	1	9.685584	31.152642	26.708470
423	1	24.638594	14.482930	17.124777
424	1	31.360638	7.406858	17.450638
425	1	28.164744	28.442578	11.005015
426	1	23.911391	30.528912	25.705731
427	1	27.669804	12.255993	14.206044
428	1	22.948490	28.545278	26.823884
429	1	18.630190	13.129707	29.698495
430	1	30.674746	16.786429	1.733114
431	1	30.756839	19.472186	4.851976
432	1	31.775654	21.989395	8.328717
433	1	23.710726	31.903447	30.079723
434	1	21.722850	15.042357	10.336545
435	1	5.003556	13.054503	30.864279
436	1	29.361913	24.773017	24.401442
437	1	30.498450	12.488431	0.352321
438	1	15.256032	19.115163	8.515684
439	1	25.343469	9.365994	19.873981
440	1	11.610716	5.722244	21.330074
441	1	30.324890	9.655708	29.586319
442	1	24.929757	16.415627	6.036863
443	1	4.468846	25.890334	25.760226
444	1	31.097233	17.944881	26.306680
445	1	31.628426	19.632689	9.113524
446	1	13.616447	24.555090	7.888265
447	1	22.185748	19.304002	31.988522
448	1	19.940139	2.185237	21.954202
449	1	25.520333	23.534021	16.077761
450	1	5.139873	4.383000	12.040495
451	1	2.526084	19.636263	15.938131
452	1	23.511437	20.721087	19.213337
453	1	23.967330	19.730121	11.084165
454	1	12.323115	14.795406	30.092477
455	1	30.448600	2.639465	9.125531
456	1	12.723743	4.207197	19.464378
457	1	13.820436	8.320655	0.675138
458	1	8.358055	6.453773	3.430940
459	1	11.174959	17.934198	13.602763
460	1	32.011609	21.421697	10.809811
461	1	15.909458	31.772878	20.875534
462	1	11.839418	22.524752	3.425698
463	1	2.776815	24.614391	18.087220
464	1	29.520485	20.313986	16.940334
465	1	26.067133	27.259826	7.340030
466	1	12.753495	17.649708	30.074103
467	1	4.538987	29.724066	17.801904
468	1	2.728771	4.859189	25.164898
469	1	19.623205	19.404549	27.382990
470	1	15.383895	4.020036	9.563967
471	1	28.665526	7.440016	9.196645
472	1	27.091957	10.087385	18.276392
473	1	2.417148	5.759358	29.482025
474	1	27.433257	22.501068	7.807425
475	1	17.636204	11.032398	22.360595
476	1	29.543602	30.335426	9.773128
477	1	3.495827	12.043097	5.546302
478	1	20.512584	25.903840	28.584015
479	1	9.132661	21.286962	17.890360
480	1	17.428805	25.826367	19.285096
481	1	14.777437	10.602748	22.067153
482	1	13.143043	3.585294	2.912743
483	1	29.832465	16.819278	12.857583
484	1	24.345685	7.628205	7.237056
485	1	32.049152	28.496214	12.877476
486	1	16.882921	19.895829	18.405411
487	1	6.974406	21.449945	10.605537
488	1	4.986015	23.942283	23.979891
489	1	30.944666	23.157017	1.750702
490	1	28.474557	17.162888	10.733733
491	1	10.735748	12.569479	4.157736
492	1	2.640910	19.952084	28.409004
493	1	4.094021	26.539711	20.779442
494	1	23.343634	8.439138	19.112116
495	1	6.928905	30.833095	8.852592
496	1	5.210064	10.578469	30.839958
497	1	9.656153	2.348352	2.729504
498	1	12.400021	9.836902	12.331634
499	1	10.771089	22.302545	14.390191
500	1	11.994276	23.097671	12.668451
501	1	21.012659	31.916731	12.267102
502	1	4.200594	3.221727	21.490697
503	1	17.425929	16.498204	11.899138
504	1	11.319206	14.972690	5.124087
505	1	29.476496	15.927389	8.773728
506	1	0.327942	13.082086	7.700846
507	1	10.356940	27.376316	16.355947
508	1	2.095819	25.104574	29.929936
509	1	5.794861	18.109801	22.500255
510	1	20.060114	11.612428	17.629926
511	1	4.200769	23.156041	19.538702
512	1	19.588715	6.296770	6.696211
513	1	14.654676	6.618701	11.461235
514	1	16.500265	5.425216	17.403337
515	1	23.511133	19.721929	2.463925
516	1	12.095202	12.145654	13.345367
517	1	26.728208	22.272027	31.485906
518	1	5.439364	31.734473	26.274119
519	1	30.473595	8.419472	32.095874
520	1	20.834731	4.238027	23.349072
521	1	7.020341	20.553927	26.216081
522	1	27.833396	21.698057	18.394249
523	1	3.344142	9.291380	22.953053
524	1	15.360245	6.589761	31.127741
525	1	3.848349	9.749333	27.692584
526	1	23.223192	9.463752	6.815723
527	1	31.554437	26.514694	20.754514
528	1	23.918977	2.551181	29.530003
529	1	17.151923	3.735291	19.254390
530	1	28.752302	5.178392	2.629456
531	1	28.884094	28.046064	27.030644
532	1	2.303705	13.618415	1.898704
533	1	26.303187	9.118903	8.358489
534	1	3.197944	31.523927	27.421992
535	1	6.058126	23.402384	15.090226
536	1	26.937163	28.535218	23.071852
537	1	19.849119	7.552697	1.444192
538	1	23.625780	27.626388	15.946355
539	1	17.265488	10.032405	4.147128
540	1	31.834590	8.729174	25.665042
541	1	3.659667	28.118206	24.643718
542	1	29.478433	7.417624	15.629683
543	1	15.060725	20.322348	28.751789
544	1	24.173348	22.914068	31.259394
545	1	27.426203	19.394549	10.496210
546	1	2.449369	21.049940	-0.675651
547	1	2.651878	22.958790	22.963491
548	1	25.193482	18.643358	19.617287
549	1	21.025725	12.038349	28.231402
550	1	16.378403	24.812011	16.060194
551	1	8.543494	18.725207	30.648922
552	1	26.248379	21.074941	20.129408
553	1	5.633254	13.933436	21.478724
554	1	6.657045	7.971835	17.786885
555	1	6.941144	2.463649	3.137220
556	1	29.797700	19.649801	27.876310
557	1	6.296591	8.998574	23.920277
558	1	2.692748	8.549217	25.716450
559	1	10.042623	31.513196	17.074935
560	1	20.374906	14.332401	19.885021
561	1	25.664677	31.014876	3.996809
562	1	4.923780	30.807924	19.974173
563	1	1.913874	26.577881	4.891876
564	1	27.323611	29.043552	6.291418
565	1	13.411809	15.957949	2.117063
566	1	9.215492	26.572414	2.594524
567	1	31.037495	13.753087	4.548143
568	1	12.261950	30.233315	13.284557
569	1	5.888727	27.891453	32.127299
570	1	24.967676	10.054409	27.252370
571	1	30.946257	21.632360	29.304722
572	1	29.368470	17.643755	17.030398
573	1	22.625736	15.092116	20.412708
574	1	10.650553	0.957731	28.637748
575	1	29.432034	26.249519	16.801640
576	1	22.649915	20.351363	16.586748
577	1	13.075298	20.111336	7.156554
578	1	17.444850	25.451765	8.110549
579	1	27.986727	2.975278	10.097441
580	1	2.917333	31.509979	10.833607
581	1	21.620324	18.739787	11.841064
582	1	15.457356	1.196161	6.487901
583	1	25.157489	23.374797	8.507748
584	1	27.600684	21.049139	25.241894
585	1	1.248511	2.938598	7.958617
586	1	0.845325	5.288048	11.689879
587	1	29.678064	27.405166	12.784733
588	1	6.278970	6.568211	12.622433
589	1	14.156894	2.343993	31.565362
590	1	4.736435	20.992559	14.563630
591	1	31.145858	3.208503	32.079299
592	1	20.054791	10.678155	26.200060
593	1	30.587440	5.775170	4.895402
594	1	21.875361	0.701510	9.952425
595	1	0.964908	3.215416	26.198290
596	1	3.762842	11.697205	0.927615
597	1	3.842193	14.820990	9.247172
598	1	26.178147	25.706837	19.503207
599	1	7.363696	30.163525	26.987516
600	1	23.027728	21.821287	1.484598
601	1	17.903844	6.532858	22.269694
602	1	4.257950	16.202092	21.792259
603	1	19.937558	3.245316	16.047247
604	1	2.543652	8.990456	10.185521
605	1	27.367299	15.672726	12.554464
606	1	14.749951	13.453450	30.625391
607	1	10.243331	4.200059	26.639428
608	1	26.454503	19.001691	5.721830
609	1	9.637852	9.636661	0.905617
610	1	25.608528	8.825574	14.328106
611	1	6.347773	32.011992	10.980241
612	1	23.311310	17.418115	1.711846
613	1	22.385195	12.586813	20.627182
614	1	21.692556	29.073263	15.313115
615	1	13.197148	16.593797	19.075709
616	1	11.926254	31.468183	21.998725
617	1	30.142047	12.964011	24.836646
618	1	23.847235	11.208364	4.935396
619	1	17.794757	22.730085	15.298878
620	1	22.254171	6.474284	8.342400
621	1	4.593284	31.710425	8.679748
622	1	20.215170	4.091185	13.752327
623	1	21.484231	15.394507	5.192666
624	1	5.950650	6.389278	1.962930
625	1	2.527547	17.465506	6.029451
626	1	26.243744	13.481551	27.368187
627	1	8.142980	22.512823	1.077660
628	1	23.726493	25.548407	4.080841
629	1	24.201185	19.983115	4.730463
630	1	31.216982	11.774736	9.586071
631	1	30.901006	16.072350	15.295642
632	1	28.670135	8.731031	6.972152
633	1	21.203952	21.078705	28.535027
634	1	17.779278	10.322085	8.423116
635	1	12.167345	15.173391	20.802241
636	1	20.499746	15.155311	25.401962
637	1	14.990544	9.180135	7.776720
638	1	7.025752	28.350215	9.204341
639	1	18.044860	6.070078	2.603015
640	1	24.561494	16.981884	8.622065
641	1	6.418739	0.520254	30.551917
642	1	10.499348	8.239214	12.964734
643	1	8.788307	31.501969	7.217307
644	1	8.087325	11.749601	20.531898
645	1	14.204927	11.688316	26.307064
646	1	22.528190	21.704616	23.357030
647	1	14.269365	22.575502	11.882550
648	1	2.123885	18.352820	26.567733
649	1	5.688247	16.485885	28.351684
650	1	27.057237	6.031156	0.541672
651	1	23.730267	8.675633	4.309132
652	1	4.420193	16.309751	17.326619
653	1	21.981504	29.291124	17.869509
654	1	22.340733	19.309957	27.128588
655	1	16.381284	21.333355	24.614647
656	1	4.648099	23.750958	1.435126
657	1	25.990421	17.339641	14.170559
658	1	16.614645	14.111722	14.104373
659	1	1.582451	11.806829	16.391827
660	1	26.637872	4.426297	5.575999
661	1	31.038707	14.300470	22.751947
662	1	3.569066	30.582842	6.109957
663	1	16.222375	16.677958	26.767470
664	1	18.129608	26.463922	5.989082
665	1	1.940006	20.123241	1.540722
666	1	3.845570	13.420914	23.143447
667	1	1.758319	1.580995	5.872043
668	1	9.649028	30.393480	22.515119
669	1	11.415376	22.387232	19.320648
670	1	9.847136	13.336350	13.983208
671	1	17.127356	29.734926	29.553627
672	1	29.371075	12.427268	16.037379
673	1	26.872704	0.740345	9.342875
674	1	27.785406	5.792895	20.315528
675	1	21.782757	23.654921	32.131846
676	1	14.081458	28.372248	12.667437
677	1	5.358006	30.958260	28.807161
678	1	14.998524	18.807576	30.881591
679	1	26.673513	7.590845	18.305598
680	1	14.632118	17.621715	25.045042
681	1	8.847694	8.357226	19.175896
682	1	2.890051	29.064099	4.139367
683	1	30.439757	5.064406	26.715870
684	1	3.514433	17.083930	15.067604
685	1	17.266466	29.853684	22.409497
686	1	8.790278	0.337536	12.530618
687	1	31.957345	1.038906	18.457707
688	1	21.293871	23.230640	2.896856
689	1	18.540095	12.544348	12.558677
690	1	13.272006	0.753585	14.580480
691	1	30.709177	6.469805	10.544376
692	1	24.102627	22.126303	12.099621
693	1	31.488263	13.463653	17.265275
694	1	15.311263	31.788165	26.259794
695	1	10.811815	22.787772	16.798620
696	1	5.780125	30.669270	15.543803
697	1	0.349528	17.718637	12.782779
698	1	22.841024	30.140127	23.339275
699	1	9.241416	29.710421	8.850933
700	1	6.565312	20.161598	23.640246
701	1	27.621002	30.788051	11.598644
702	1	12.372832	17.089288	4.099873
703	1	21.500849	4.202697	6.932485
704	1	30.016155	17.699493	23.629168
705	1	16.795540	10.862498	11.237130
706	1	22.751548	31.068390	14.039423
707	1	25.248866	27.080067	27.035879
708	1	3.306064	29.601340	29.275575
709	1	1.190422	19.292694	21.367004
710	1	5.837376	14.291533	26.795650
711	1	3.933001	24.348233	28.069915
712	1	20.050699	30.978882	14.417101
713	1	3.906440	2.479605	8.233323
714	1	0.496656	21.695254	24.314027
715	1	1.650026	23.139973	9.815267
716	1	5.271476	28.152742	29.699117
717	1	23.657074	25.482907	19.909227
718	1	5.564907	6.076486	10.177704
719	1	21.725475	20.705528	3.808061
720	1	6.751605	21.081037	5.061066
721	1	18.266538	24.406487	27.859646
722	1	9.912729	15.334136	7.223973
723	1	4.939688	16.670282	5.942852
724	1	18.485420	21.384259	17.240304
725	1	2.545824	7.968993	14.574065
726	1	21.282722	24.334821	15.895511
727	1	7.733550	31.032015	0.480971
728	1	14.237647	29.457171	26.592521
729	1	31.159695	30.555045	19.125074
730	1	30.184554	9.035679	13.809529
731	1	28.838887	18.085872	21.301685
732	1	1.481153	15.533694	15.961619
733	1	24.804674	2.890677	22.546055
734	1	6.717481	27.848063	11.874569
735	1	22.286533	10.392239	17.226712
736	1	26.595107	1.198746	11.912201
737	1	26.799184	8.351165	10.794091
738	1	11.952565	22.116387	8.341351
739	1	26.021173	10.663848	10.413770
740	1	16.892843	2.768122	4.662838
741	1	11.748130	16.334974	32.034337
742	1	25.089213	5.288366	23.003564
743	1	31.406091	29.069084	26.669206
744	1	4.903248	5.745684	21.518802
745	1	7.447534	15.973085	6.630147
746	1	19.866321	17.069069	15.773948
747	1	27.921834	13.924365	19.737548
748	1	15.537473	20.854270	6.638308
749	1	8.511108	22.677036	6.012148
750	1	10.065575	11.820084	22.434387
751	1	12.041223	29.512863	31.525667
752	1	16.414696	7.550959	3.955267
753	1	27.202585	26.234910	1.621795
754	1	11.008970	4.233818	17.277620
755	1	28.925352	0.521861	8.222032
756	1	21.803686	27.855341	10.852808
757	1	0.513381	3.813653	5.350622
758	1	18.705017	12.662313	27.136745
759	1	6.021485	22.867678	31.426615
760	1	12.166809	24.811896	24.501052
761	1	2.637674	20.627631	23.180140
762	1	3.663567	18.092440	1.490858
763	1	28.274779	27.132469	14.859854
764	1	10.142221	27.339128	13.726198
765	1	30.188098	11.480236	13.843688
766	1	27.214065	13.847354	2.191323
767	1	11.670961	29.285242	20.933704
768	1	12.616005	30.824084	16.135532
769	1	15.383634	21.263196	31.290180
770	1	10.961053	4.778581	24.255425
771	1	14.703234	26.503305	31.159799
772	1	28.375550	7.716703	1.532751
773	1	31.263877	0.349941	8.821196
774	1	6.620648	22.060261	7.951674
775	1	31.458359	22.125410	5.815717
776	1	29.854202	2.887054	2.207308
777	1	25.185516	12.097326	29.270506
778	1	8.456391	23.570364	14.273298
779	1	17.757158	29.622113	14.148006
780	1	12.599840	25.197715	31.942054
781	1	21.280719	14.809577	15.637008
782	1	18.938746	0.393612	23.395884
783	1	1.240672	3.379551	17.620617
784	1	17.650856	3.728167	2.616618
785	1	15.747575	4.453689	15.268262
786	1	10.078829	27.881144	22.409700
787	1	10.969308	26.939604	24.753433
788	1	26.338756	27.090461	9.993278
789	1	12.944826	13.074692	15.792165
790	1	17.103517	17.235151	31.312631
791	1	17.411769	8.162645	17.035435
792	1	26.522845	11.567324	1.504066
793	1	5.596686	24.973302	3.728959
794	1	23.125138	27.978407	3.942292
795	1	21.490011	28.081514	24.759645
796	1	24.404721	26.635268	2.030105
797	1	23.671829	8.628966	1.646572
798	1	14.443461	31.974211	12.329236
799	1	1.656548	18.097640	8.671023
800	1	12.928403	21.692190	17.377602
801	1	27.412887	15.749839	26.928966
802	1	23.513947	21.376440	8.936956
803	1	23.767460	31.878442	5.762030
804	1	19.971824	17.261511	4.234774
805	1	9.033949	18.306993	25.344428
806	1	31.798094	27.742035	1.264421
807	1	0.343015	5.241176	21.428967
808	1	2.868727	12.052646	13.361897
809	1	28.431621	14.377382	4.416269
810	1	15.310301	24.960309	5.513144
811	1	1.361831	8.165960	7.399882
812	1	26.453676	1.151325	23.145288
813	1	27.941096	30.898826	23.950281
814	1	13.194945	4.199528	8.220963
815	1	20.410171	16.320955	21.382858
816	1	30.075085	22.254633	12.015757
817	1	14.209821	7.489166	24.994916
818	1	8.648060	3.303587	9.277902
819	1	10.175412	13.577538	20.607275
820	1	6.474663	9.593833	19.823251
821	1	10.000160	20.288275	13.299686
822	1	16.277972	11.677104	13.583054
823	1	27.389985	16.707182	5.186969
824	1	28.859478	18.407942	6.239042
825	1	21.848585	31.418217	16.351508
826	1	10.477547	25.411967	22.305709
827	1	24.909719	15.480497	23.918428
828	1	31.942028	23.559641	26.125819
829	1	13.024285	11.148970	3.708618
830	1	25.352915	30.656779	23.719598
831	1	24.679812	29.145876	21.654435
832	1	15.555619	27.412633	20.732519
833	1	29.711671	1.116354	0.435685
834	1	25.421650	22.306826	1.822974
835	1	26.420773	14.008871	22.212306
836	1	13.268869	6.795226	19.750360
837	1	31.763323	1.687265	24.156900
838	1	30.967339	31.224336	31.017472
839	1	4.181115	1.046257	6.130262
840	1	15.755631	30.696484	1.779378
841	1	29.148669	26.174468	19.352853
842	1	17.109907	13.107449	18.492226
843	1	17.410612	28.208382	7.546741
844	1	6.706525	17.554051	8.649615
845	1	9.342442	12.901810	18.340825
846	1	30.660857	19.693659	22.328297
847	1	19.361424	18.781295	31.988642
848	1	8.679310	10.019192	28.426165
849	1	10.931532	18.748917	11.342199
850	1	27.322027	5.270640	29.989899
851	1	16.270984	9.697075	28.415725
852	1	9.268362	25.758913	28.775692
853	1	6.742763	2.845638	18.301610