Box of EAM                                                                                                                                               

  2000 atoms
  2    atom types

2.9987472714648433e-01 3.2130125270428323e+01 xlo xhi
2.9987472714648433e-01 3.2130125270428323e+01 ylo yhi
2.9987472714648433e-01 3.2130125270428323e+01 zlo zhi

  Atoms

1 1 8.08483 21.781 22.1115
2 1 25.7089 0.640457 28.7338
3 1 19.9184 11.6823 8.35827
4 1 16.1446 26.4717 11.9453
5 1 23.4546 19.7955 24.713
6 1 3.81726 19.1452 21.3042
7 1 22.8179 23.682 25.4613
8 1 9.60672 18.5696 18.0021
9 1 15.0485 16.9755 17.0272
10 1 21.7854 3.68673 31.1312
11 1 19.4783 18.7825 8.06603
12 1 6.58537 4.70449 31.8216
13 1 22.3555 11.9162 24.1622
14 1 3.72512 6.32634 5.62367
15 1 3.42748 30.6664 25.0776
16 1 26.0124 19.5826 24.1116
17 1 7.33901 26.4807 30.3949
18 1 15.5317 29.565 6.33196
19 1 27.9076 18.3369 12.9549
20 1 2.99853 24.6487 8.60312
21 1 31.7585 15.2813 12.4382
22 1 23.5838 28.7015 13.5129
23 1 8.85645 29.3496 17.4359
24 1 20.5813 31.5631 18.5191
25 1 16.682 29.3751 16.6292
26 1 23.2056 17.2534 28.139
27 1 30.3151 28.6427 5.17614
28 1 25.0644 25.8315 14.6468
29 1 9.07821 29.0126 20.1339
30 1 18.0328 26.8927 16.3714
31 1 27.8896 3.06624 12.599
32 1 25.7046 1.31345 31.2686
33 1 21.3082 3.76281 19.5139
34 1 26.1724 20.55 3.5993
35 1 24.7957 13.0168 24.4767
36 1 5.86406 0.635012 1.56562
37 1 22.0335 18.9024 22.9934
38 1 18.1547 31.8097 1.16839
39 1 25.4843 17.5451 25.5454
40 1 23.676 18.3881 17.6976
41 1 28.9092 0.591449 21.967
42 1 17.2601 18.7194 6.76519
43 1 8.43954 26.5713 23.741
44 1 24.4746 21.5883 14.9191
45 1 22.7366 16.1288 22.7659
46 1 16.2489 27.4199 4.84274
47 1 21.5542 19.2111 18.7211
48 1 16.9809 14.9519 16.4564
49 1 21.5272 9.54316 0.682674
50 1 25.0657 10.2799 2.84749
51 1 10.9699 28.2115 3.6471
52 1 1.39389 7.42357 19.3878
53 1 5.51654 8.3917 26.133
54 1 5.98319 3.7183 9.72483
55 1 12.3561 16.3654 25.3797
56 1 26.3435 1.74575 20.632
57 1 15.0841 14.3453 9.00892
58 1 18.7687 15.1729 23.589
59 1 11.1128 22.3377 25.6417
60 1 21.0462 18.3549 2.20426
61 1 11.5585 17.6157 6.57459
62 1 9.13155 9.06356 15.1111
63 1 13.743 28.1989 24.5217
64 1 5.15093 4.48888 19.3546
65 1 8.55366 13.2238 2.43007
66 1 24.5838 25.6577 8.82081
67 1 25.0503 6.50537 5.03442
68 1 30.0675 25.7248 8.39528
69 1 25.466 31.1767 10.859
70 1 19.0827 3.52281 11.3535
71 1 22.1419 25.5057 21.7054
72 1 4.51146 14.2311 1.22175
73 1 22.3557 2.40318 22.5076
74 1 2.28818 21.5674 14.3648
75 1 30.5812 2.87228 22.1449
76 1 23.9806 18.5251 6.75842
77 1 23.4419 8.44271 31.0041
78 1 23.1471 22.6986 16.929
79 1 12.1164 24.4372 20.5779
80 1 1.03675 28.6332 15.4178
81 1 7.26868 19.5561 18.349
82 1 0.985637 20.3103 30.3791
83 1 24.1719 11.2728 18.9969
84 1 10.578 30.2415 10.9877
85 1 28.8315 30.5624 19.7049
86 1 12.9812 13.5159 2.98181
87 1 30.6939 7.04886 2.70704
88 1 23.3653 4.18831 1.71294
89 1 15.8138 17.6621 29.0324
90 1 14.4138 2.35926 4.6516
91 1 2.77368 3.24596 30.1441
92 1 0.796646 28.8281 20.0274
93 1 14.7527 15.6628 21.0391
94 1 7.93348 30.0554 11.0379
95 1 19.2998 14.6414 11.4935
96 1 1.24863 19.1658 11.0869
97 1 5.96412 18.6427 29.9861
98 1 10.1574 5.38504 10.0254
99 1 6.36835 30.0682 2.2993
100 1 19.459 17.7336 13.0784
101 1 19.1613 11.8132 31.8811
102 1 21.2832 16.8281 31.9412
103 1 8.00848 19.0269 3.62693
104 1 7.03935 16.4278 26.1351
105 1 6.9609 25.0615 25.0936
106 1 19.9975 18.8429 21.4904
107 1 25.5856 4.13355 20.4715
108 1 22.5989 20.8221 13.3144
109 1 5.58114 23.443 26.3442
110 1 4.85904 20.8374 12.0154
111 1 16.3851 3.35862 28.1636
112 1 13.4955 4.05016 24.8087
113 1 20.2984 1.57738 0.452883
114 1 19.9921 5.45518 30.4062
115 1 7.12378 11.8762 29.9674
116 1 10.6032 17.2381 23.6277
117 1 6.6502 7.61613 8.46373
118 1 20.8229 17.164 27.1637
119 1 5.26151 29.3443 7.70238
120 1 30.2346 20.2548 7.24021
121 1 20.1932 8.64921 13.0434
122 1 23.3397 30.331 3.49948
123 1 1.34685 15.7557 8.36457
124 1 2.97062 29.4584 8.3996
125 1 8.29608 16.1964 23.8269
126 1 0.993818 4.78041 31.4768
127 1 9.60341 4.53996 22.4069
128 1 0.672456 8.86059 3.20421
129 1 3.2517 0.396848 29.9865
130 1 23.6032 4.55347 18.7799
131 1 28.7574 5.34978 6.57553
132 1 19.5458 29.5485 19.6175
133 1 31.9506 4.65509 9.37922
134 1 6.30578 11.3227 9.94655
135 1 17.3962 5.08415 26.3636
136 1 2.14841 3.62074 15.2811
137 1 6.98275 15.918 11.9595
138 1 12.0909 9.85548 31.6214
139 1 13.8885 0.724933 22.217
140 1 26.6731 12.5991 9.44001
141 1 16.6333 4.63322 0.482814
142 1 32.0159 7.80146 15.0979
143 1 1.8589 26.5514 16.6734
144 1 27.4093 9.69123 2.92667
145 1 9.41134 24.1423 2.60716
146 1 6.67533 27.4109 2.84317
147 1 13.7997 18.2734 20.746
148 1 6.02723 13.7169 10.0106
149 1 16.3514 6.15507 13.2715
150 1 16.7006 29.6834 27.1413
151 1 27.9185 7.612 13.5667
152 1 7.49696 8.84638 13.3003
153 1 21.1158 11.0526 30.5366
154 1 29.0491 29.7213 21.9905
155 1 24.6318 15.5919 12.8652
156 1 6.49029 21.4284 16.6153
157 1 8.83729 26.1683 26.2295
158 1 21.0943 5.72412 3.02717
159 1 28.195 12.8793 32.023
160 1 27.8351 16.2368 2.7416
161 1 31.7929 18.7252 16.854
162 1 31.4463 1.48725 4.36439
163 1 28.0181 21.1322 12.4347
164 1 10.3714 29.5761 15.3457
165 1 3.45851 22.9183 31.162
166 1 4.33374 28.6501 2.09808
167 1 22.0838 9.87507 11.6677
168 1 19.1951 4.60956 18.1124
169 1 11.9806 17.8899 17.4535
170 1 6.35665 26.0818 16.5211
171 1 27.9854 29.7129 31.2171
172 1 14.3635 11.5295 11.8716
173 1 8.40158 15.2855 14.0307
174 1 3.09633 24.7801 3.28762
175 1 8.99573 5.90349 25.3582
176 1 27.0347 24.2617 23.1476
177 1 14.394 15.365 28.6296
178 1 21.9008 15.7586 29.7177
179 1 25.3943 11.3048 14.4811
180 1 21.8179 24.6523 4.98656
181 1 25.8337 7.69285 2.93405
182 1 16.2944 10.9495 6.41511
183 1 29.6996 25.2732 1.35329
184 1 23.1094 10.6354 29.0688
185 1 20.3223 26.71 22.8628
186 1 4.1215 13.0586 3.38618
187 1 4.23834 16.4354 26.2505
188 1 5.80476 12.8928 24.5483
189 1 2.35923 27.2093 2.36571
190 1 9.30694 6.0614 27.8602
191 1 12.9304 7.63058 6.28122
192 1 26.8497 16.5559 20.1656
193 1 9.70124 10.2141 7.62116
194 1 17.9941 7.86686 14.3992
195 1 17.0727 14.5535 5.45343
196 1 31.1611 11.03 4.28128
197 1 14.9032 30.8319 28.7793
198 1 26.7247 2.82549 29.5
199 1 19.2053 9.12443 18.6978
200 1 24.4493 17.9438 23.0624
201 1 12.1875 15.6098 27.7062
202 1 16.2938 25.2422 29.4943
203 1 26.6693 31.8906 16.3728
204 1 18.026 29.5733 9.69464
205 1 9.17912 0.307463 30.5116
206 1 16.3486 1.62788 8.67803
207 1 30.7062 0.552329 28.7424
208 1 17.5646 15.3456 9.49174
209 1 5.82184 11.931 16.2055
210 1 21.489 12.002 15.5217
211 1 28.8018 26.0101 10.6768
212 1 23.7311 15.5893 3.75234
213 1 9.04591 17.6905 7.65247
214 1 14.1136 23.7854 3.53249
215 1 1.83814 26.7751 19.2887
216 1 10.5864 25.1723 17.6697
217 1 16.6862 22.2764 11.0833
218 1 17.9064 3.31042 9.15579
219 1 17.6976 10.7952 17.4983
220 1 6.55326 18.2519 24.9963
221 1 19.7837 21.9341 21.0824
222 1 17.0384 27.4715 30.7606
223 1 29.4067 8.25179 11.4662
224 1 29.4186 21.3958 3.05905
225 1 25.0761 25.8698 29.4482
226 1 7.19172 26.1209 9.57409
227 1 17.4653 31.688 15.4441
228 1 6.96682 20.6511 31.5427
229 1 15.0981 3.10094 17.6903
230 1 1.78246 13.7659 11.5657
231 1 8.2046 30.587 4.82102
232 1 31.7722 12.8383 2.49208
233 1 2.91168 0.569635 0.968883
234 1 6.49286 1.35342 16.2736
235 1 15.207 2.98995 23.0661
236 1 13.3675 17.7392 8.21528
237 1 17.9675 31.5705 18.0126
238 1 2.88601 15.6843 24.0119
239 1 5.80552 7.52559 6.1872
240 1 1.45491 22.623 18.6393
241 1 19.164 21.935 10.7505
242 1 18.7638 21.741 27.8694
243 1 14.1056 9.344 10.3397
244 1 2.4309 11.5605 22.2804
245 1 31.2413 1.35382 12.9069
246 1 7.97012 24.5104 7.64702
247 1 14.6707 15.0783 15.4131
248 1 10.516 13.2805 11.6606
249 1 25.8555 23.5594 29.4557
250 1 24.8741 16.0918 21.4361
251 1 12.8507 10.8413 17.2863
252 1 14.8505 15.7765 12.9051
253 1 21.4455 9.70157 4.88052
254 1 10.7491 9.08639 17.3894
255 1 2.65334 5.09398 22.6915
256 1 12.888 25.2898 5.49191
257 1 14.0884 25.6641 15.4529
258 1 20.9757 25.926 31.2287
259 1 4.37934 27.993 15.7649
260 1 6.12057 29.8401 24.5191
261 1 9.66382 29.6968 31.5273
262 1 10.4449 13.8282 28.2297
263 1 21.7866 21.2892 10.7918
264 1 10.073 8.06408 2.99153
265 1 5.53583 24.5694 8.24095
266 1 1.9808 16.3801 30.5887
267 1 2.32768 22.7428 2.12884
268 1 29.8474 5.57314 22.3425
269 1 5.10333 12.0163 28.2873
270 1 5.66796 14.379 17.275
271 1 12.5971 20.4416 20.7251
272 1 16.7511 9.95628 15.3036
273 1 11.8101 5.19273 28.5146
274 1 9.75653 20.2716 26.902
275 1 4.20126 0.9913 15.3243
276 1 25.9939 4.6284 13.6793
277 1 24.9054 25.2834 24.8285
278 1 2.38976 17.6024 17.1853
279 1 27.3445 29.6376 15.7432
280 1 7.87978 9.45122 9.31954
281 1 8.61675 12.0318 32.1232
282 1 26.5757 18.9506 21.5935
283 1 27.2828 14.9641 10.031
284 1 18.3292 25.3748 23.3551
285 1 19.6038 7.05566 17.1086
286 1 2.2338 3.03169 1.08208
287 1 30.9697 1.87809 6.80656
288 1 29.5147 14.8784 11.1791
289 1 29.6606 2.7343 14.4455
290 1 6.98066 1.92857 22.496
291 1 5.90718 2.56322 5.52835
292 1 6.2606 31.4592 6.4506
293 1 1.678 2.51818 3.58292
294 1 29.8386 9.28099 2.82289
295 1 9.88522 12.7328 24.9536
296 1 23.1843 14.4013 31.8559
297 1 17.4125 14.4154 25.8932
298 1 18.9126 8.69578 26.9433
299 1 18.5225 7.60063 9.1593
300 1 13.2941 27.4092 1.13407
301 1 6.11895 2.10246 25.7569
302 1 4.91816 4.21143 26.4953
303 1 8.07477 15.3051 27.9957
304 1 7.94686 6.24388 6.22847
305 1 2.53768 16.1109 1.16163
306 1 3.98448 25.1917 15.7795
307 1 1.07551 24.0026 4.66776
308 1 10.8462 18.6436 31.5419
309 1 1.16115 11.9841 0.391459
310 1 3.06172 25.3908 23.4701
311 1 27.4897 11.2545 7.12516
312 1 2.24813 15.6483 13.4603
313 1 10.6897 30.8013 3.79549
314 1 17.5522 29.5926 31.9444
315 1 21.8238 11.4185 6.57933
316 1 13.652 11.1698 6.56099
317 1 4.37673 31.4144 13.0028
318 1 14.6775 11.8514 18.8557
319 1 13.096 19.2155 10.1439
320 1 23.2193 31.8361 18.5739
321 1 26.9394 21.5465 22.6224
322 1 29.2243 16.5543 19.3437
323 1 29.0388 4.51806 24.5183
324 1 12.8421 29.3057 28.6949
325 1 12.0407 1.65008 20.2399
326 1 1.3111 6.86335 9.65288
327 1 12.1025 8.97214 24.8522
328 1 28.5593 27.7485 8.58265
329 1 19.2697 14.9104 4.17055
330 1 29.1553 8.65475 17.9304
331 1 7.21037 23.1606 3.45337
332 1 4.45742 10.3767 3.09764
333 1 10.8949 17.8572 27.1816
334 1 1.83198 30.1671 21.7439
335 1 7.54675 28.6982 22.6586
336 1 29.2226 15.2683 6.53416
337 1 12.3327 2.64335 29.6588
338 1 20.6515 11.2834 22.2558
339 1 7.6844 29.2473 6.87119
340 1 25.8353 24.5402 10.7851
341 1 10.9172 14.0904 9.32419
342 1 24.4087 1.36401 10.0622
343 1 29.4285 0.594994 2.96429
344 1 17.4722 17.9184 9.35317
345 1 11.4428 20.5698 1.62744
346 1 7.39359 16.5159 30.2189
347 1 27.5039 20.0477 27.8218
348 1 28.3392 16.626 14.9646
349 1 7.00537 2.86223 29.9021
350 1 16.9397 31.7218 12.73
351 1 22.6555 7.88416 21.5105
352 1 1.84298 30.7088 31.3045
353 1 8.14579 16.1387 2.52245
354 1 22.4945 10.2799 26.4124
355 1 17.9026 2.26829 0.501324
356 1 20.9089 13.4209 13.5036
357 1 17.7208 8.64016 2.04153
358 1 21.6078 12.3184 1.24072
359 1 15.9485 29.6977 24.6693
360 1 2.84118 3.98797 27.6531
361 1 10.6853 26.5605 5.38614
362 1 25.4487 2.55231 27.1914
363 1 24.6363 9.87167 12.3163
364 1 17.3203 25.634 25.6368
365 1 27.7748 25.2457 3.89414
366 1 28.6873 10.2099 4.97082
367 1 28.3977 19.5899 23.2983
368 1 27.4917 20.5721 1.33217
369 1 2.49093 1.99688 19.4431
370 1 27.708 3.40391 19
371 1 25.1981 24.4003 27.0249
372 1 6.41822 9.5462 15.5064
373 1 29.2228 0.652415 5.50333
374 1 25.6218 24.6294 0.422868
375 1 19.2633 16.3204 30.5642
376 1 27.9821 1.51132 27.5807
377 1 5.74984 18.7755 13.768
378 1 7.3314 2.40771 11.4162
379 1 3.11057 0.427156 21.3564
380 1 11.8138 4.90335 30.9399
381 1 16.8336 27.2033 9.74933
382 1 5.56391 15.1753 7.9562
383 1 3.34237 28.778 19.9725
384 1 20.6242 6.59112 22.2096
385 1 30.6368 24.2377 21.0304
386 1 25.6676 28.8178 11.7517
387 1 15.1714 5.22526 19.4186
388 1 22.5593 25.9565 24.1167
389 1 6.81407 30.3762 13.0743
390 1 29.3373 4.90209 9.01986
391 1 18.0529 23.1956 8.7842
392 1 21.2756 8.01437 26.1512
393 1 14.0316 25.6783 19.8764
394 1 27.5156 24.8699 15.2194
395 1 16.7236 1.30893 19.1193
396 1 21.024 5.15036 11.6824
397 1 4.19414 27.3663 11.8935
398 1 6.4594 3.92008 16.0166
399 1 20.7448 4.58357 25.699
400 1 21.1078 29.277 12.8164
401 1 23.0347 11.7445 13.0269
402 1 29.9277 30.0246 12.3218
403 1 18.2587 12.578 10.0367
404 1 13.7472 2.99705 15.6058
405 1 21.725 28.3704 7.72104
406 1 16.0002 16.4412 1.77375
407 1 3.58779 13.8546 25.6357
408 1 17.4581 3.9098 13.2722
409 1 26.8335 11.1578 30.7911
410 1 9.40255 4.66507 31.9943
411 1 8.29367 17.5676 19.8773
412 1 4.52158 16.959 12.567
413 1 16.4522 2.74751 30.4605
414 1 10.6493 23.9348 4.8697
415 1 0.563637 15.4146 2.9053
416 1 20.9524 25.7159 11.2285
417 1 24.095 11.8884 16.4782
418 1 7.85498 19.801 8.66955
419 1 15.2891 7.5526 18.4237
420 1 22.8275 14.3745 24.8034
421 1 14.6511 25.1271 1.51645
422 1 9.67735 31.1595 26.7086
423 1 24.6352 14.4781 17.1236
424 1 31.3733 7.42848 17.4196
425 1 28.154 28.4455 11.008
426 1 23.9187 30.5258 25.7068
427 1 27.6604 12.2618 14.191
428 1 22.949 28.5402 26.8198
429 1 18.6315 13.1322 29.6864
430 1 30.5368 16.7967 1.78642
431 1 30.6609 19.4787 4.88931
432 1 31.7554 21.9936 8.33675
433 1 23.7189 31.899 30.0784
434 1 21.6993 15.052 10.3235
435 1 4.96495 13.1112 30.8795
436 1 29.3785 24.7715 24.3988
437 1 30.4564 12.5385 0.330511
438 1 15.2387 19.1097 8.50871
439 1 25.3419 9.36361 19.865
440 1 11.6133 5.71624 21.3449
441 1 30.344 9.66958 29.5945
442 1 24.9489 16.3956 6.06544
443 1 4.48704 25.8747 25.7765
444 1 31.1168 17.964 26.3104
445 1 31.604 19.6349 9.10927
446 1 13.6291 24.5747 7.90122
447 1 22.166 19.3075 31.9918
448 1 19.9384 2.16841 21.9719
449 1 25.5133 23.5283 16.0735
450 1 5.12363 4.45264 12.0021
451 1 2.50354 19.6501 15.9321
452 1 23.5129 20.7187 19.212
453 1 23.971 19.7071 11.0793
454 1 12.3543 14.8281 30.0747
455 1 30.4573 2.64718 9.11323
456 1 12.73 4.19712 19.4835
457 1 13.8462 8.31753 0.634992
458 1 8.27213 6.55392 3.5174
459 1 11.1657 17.9124 13.602
460 1 32 21.421 10.8182
461 1 15.9147 31.7662 20.8828
462 1 11.8563 22.5328 3.43048
463 1 2.77104 24.6274 18.0775
464 1 29.524 20.3095 16.9231
465 1 26.0569 27.2477 7.34116
466 1 12.7441 17.6672 30.0634
467 1 4.53848 29.7361 17.8016
468 1 2.72716 4.8644 25.1678
469 1 19.6209 19.4083 27.37
470 1 15.4304 3.99881 9.57595
471 1 28.6009 7.41664 9.17465
472 1 27.0914 10.0854 18.2679
473 1 2.40803 5.77069 29.4733
474 1 27.4269 22.4709 7.86411
475 1 17.6383 11.0304 22.3573
476 1 29.5327 30.3427 9.77373
477 1 3.36809 11.9732 5.52531
478 1 20.506 25.9049 28.5818
479 1 9.1259 21.2716 17.875
480 1 17.4274 25.8193 19.2863
481 1 14.7904 10.5953 22.0616
482 1 13.0718 3.66471 3.01815
483 1 29.8611 16.7844 12.8634
484 1 24.3182 7.61142 7.24098
485 1 32.0412 28.5111 12.8779
486 1 16.8601 19.906 18.4322
487 1 6.98263 21.4613 10.6001
488 1 4.99245 23.9413 23.9737
489 1 30.9179 23.1719 1.77689
490 1 28.476 17.1306 10.744
491 1 10.677 12.5863 4.09082
492 1 2.67207 19.9271 28.3819
493 1 4.10493 26.5649 20.7878
494 1 23.3468 8.43141 19.104
495 1 6.92604 30.8529 8.86469
496 1 5.19675 10.6493 30.8476
497 1 9.6297 2.39751 2.74262
498 1 12.5189 9.79802 12.4366
499 1 10.7761 22.2781 14.3911
500 1 11.9899 23.0967 12.6721
501 1 21.0158 31.9111 12.2701
502 1 4.19851 3.23732 21.4927
503 1 17.4042 16.4937 11.8998
504 1 11.2716 15.0007 5.09049
505 1 29.5096 15.8488 8.78257
506 1 1.69645 13.1781 8.89805
507 1 10.3593 27.372 16.3567
508 1 2.13936 25.0239 29.9759
509 1 5.78987 18.1003 22.4846
510 1 20.0647 11.6111 17.6285
511 1 4.20495 23.1643 19.5305
512 1 19.6017 6.30856 6.69474
513 1 14.6384 6.622 11.475
514 1 16.5072 5.41416 17.4135
515 1 23.5201 19.7306 2.4756
516 1 12.189 12.2247 13.3453
517 1 26.727 22.2705 31.4492
518 1 5.4335 31.7286 26.2884
519 1 30.4772 8.45081 32.0909
520 1 20.8472 4.23282 23.3458
521 1 7.04477 20.5485 26.1884
522 1 27.8356 21.6965 18.3853
523 1 3.34413 9.29751 22.9427
524 1 15.3507 6.5753 31.1279
525 1 3.85168 9.76193 27.7227
526 1 23.2083 9.45088 6.79628
527 1 31.5608 26.5181 20.757
528 1 23.9291 2.54812 29.5281
529 1 17.1609 3.72731 19.2649
530 1 28.7946 5.18332 2.61881
531 1 28.8912 28.0336 27.0263
532 1 2.21601 13.7313 1.92673
533 1 26.2629 9.08737 8.35406
534 1 3.19564 31.5157 27.432
535 1 6.06646 23.4188 15.0828
536 1 26.9441 28.5362 23.071
537 1 19.8437 7.55323 1.43475
538 1 23.6238 27.632 15.9585
539 1 17.2509 10.0374 4.1305
540 1 31.857 8.75933 25.6909
541 1 3.66437 28.1049 24.6604
542 1 29.4951 7.4355 15.6003
543 1 15.0657 20.349 28.7425
544 1 24.1614 22.9272 31.2403
545 1 27.4274 19.3712 10.5236
546 1 1.53498 20.4186 1.13571
547 1 2.66158 22.9661 22.9487
548 1 25.1985 18.6388 19.6192
549 1 21.022 12.039 28.2165
550 1 16.3813 24.8108 16.0589
551 1 8.52421 18.7381 30.634
552 1 26.2544 21.0741 20.1239
553 1 5.61857 13.9257 21.4626
554 1 6.6528 7.97016 17.781
555 1 6.91031 2.51637 3.15089
556 1 29.8361 19.6843 27.8418
557 1 6.27983 8.98913 23.9135
558 1 2.6942 8.5669 25.7338
559 1 10.0453 31.5068 17.0869
560 1 20.3743 14.3231 19.8887
561 1 25.6594 30.9969 3.98784
562 1 4.92211 30.8099 19.9779
563 1 1.90381 26.5807 4.93094
564 1 27.3197 29.0213 6.28774
565 1 13.3763 15.9741 2.10664
566 1 9.20384 26.6057 2.59146
567 1 30.8949 13.7983 4.64534
568 1 12.2623 30.2376 13.2927
569 1 5.81195 27.8005 32.1
570 1 24.9707 10.0557 27.237
571 1 31.0894 21.53 29.3745
572 1 29.3789 17.6279 17.0255
573 1 22.6286 15.0892 20.409
574 1 10.6293 0.962039 28.6286
575 1 29.428 26.2586 16.8047
576 1 22.6512 20.3453 16.5835
577 1 13.0658 20.1191 7.14706
578 1 17.4275 25.4495 8.09686
579 1 27.9892 2.97808 10.0912
580 1 2.91632 31.5408 10.849
581 1 21.6194 18.7292 11.8332
582 1 15.4546 1.19035 6.47061
583 1 25.1521 23.3585 8.51927
584 1 27.6169 21.0427 25.2331
585 1 1.2575 2.94925 7.9397
586 1 0.853832 5.33676 11.6523
587 1 29.6704 27.4145 12.7864
588 1 6.27144 6.60968 12.5972
589 1 14.0981 2.27239 31.4483
590 1 4.73019 20.9919 14.5639
591 1 31.128 3.19872 32.0877
592 1 20.0585 10.6812 26.1854
593 1 30.5611 5.77941 4.89073
594 1 21.8701 0.698144 9.94933
595 1 0.963457 3.21961 26.1941
596 1 3.66947 11.8081 0.942587
597 1 3.62609 14.5128 9.45325
598 1 26.1795 25.7097 19.5005
599 1 7.36335 30.1572 27.0125
600 1 23.0159 21.8193 1.47622
601 1 17.915 6.52643 22.271
602 1 4.25843 16.1969 21.7802
603 1 19.9388 3.23656 16.0568
604 1 2.54367 9.06904 10.1921
605 1 27.3861 15.6408 12.5694
606 1 14.7491 13.4721 30.6064
607 1 10.235 4.19015 26.6565
608 1 26.4222 18.94 5.76069
609 1 9.72052 9.598 0.847793
610 1 25.6007 8.81973 14.3097
611 1 6.34494 32.0295 10.9838
612 1 23.3009 17.4303 1.71257
613 1 22.3948 12.5869 20.6243
614 1 21.6939 29.0695 15.3163
615 1 13.1972 16.5936 19.0815
616 1 11.9282 31.4658 22.0088
617 1 30.1556 12.9654 24.8161
618 1 23.8156 11.2022 4.9182
619 1 17.7936 22.7267 15.2984
620 1 22.2334 6.47503 8.3247
621 1 4.59444 31.7241 8.69755
622 1 20.2213 4.09321 13.7657
623 1 21.4656 15.3793 5.20467
624 1 5.97361 6.40936 1.91178
625 1 2.36214 17.3982 6.16276
626 1 26.2335 13.4966 27.3413
627 1 8.19068 22.5849 1.02695
628 1 23.7247 25.5426 4.06975
629 1 24.1731 19.9613 4.75787
630 1 31.3195 11.8798 9.37719
631 1 30.903 16.021 15.3174
632 1 28.6233 8.70863 6.95526
633 1 21.1978 21.0825 28.5278
634 1 17.761 10.3344 8.41404
635 1 12.1631 15.1653 20.8096
636 1 20.5012 15.1605 25.3903
637 1 14.9563 9.16153 7.73587
638 1 7.02566 28.3627 9.2056
639 1 18.038 6.07951 2.58826
640 1 24.5898 16.9935 8.62251
641 1 6.40652 0.514388 30.5709
642 1 10.5033 8.2137 13.0176
643 1 8.77792 31.5308 7.22934
644 1 8.06743 11.7387 20.526
645 1 14.2065 11.6918 26.2962
646 1 22.5369 21.6991 23.3585
647 1 14.2662 22.5701 11.885
648 1 2.11658 18.3591 26.5785
649 1 5.69007 16.479 28.3197
650 1 27.0629 6.04858 0.532986
651 1 23.709 8.66935 4.28109
652 1 4.41428 16.2875 17.3129
653 1 21.9867 29.2877 17.8716
654 1 22.3497 19.3139 27.1229
655 1 16.3839 21.3361 24.6066
656 1 4.66223 23.7022 1.54082
657 1 25.9938 17.3271 14.1742
658 1 16.6319 14.128 14.0936
659 1 1.54912 11.8551 16.336
660 1 26.6093 4.39956 5.56463
661 1 31.0722 14.2795 22.7094
662 1 3.55113 30.5765 6.11412
663 1 16.2161 16.6797 26.7596
664 1 18.1149 26.4564 5.98108
665 1 2.81706 20.2971 3.44531
666 1 3.8334 13.4339 23.1265
667 1 1.72629 1.53408 5.86064
668 1 9.64661 30.3922 22.5197
669 1 11.4096 22.3781 19.3096
670 1 9.84428 13.355 14.0091
671 1 17.1201 29.7362 29.5557
672 1 29.3366 12.3955 16.0346
673 1 26.8815 0.729535 9.34279
674 1 27.7945 5.80029 20.2998
675 1 21.7672 23.6505 32.1282
676 1 14.0815 28.3795 12.6711
677 1 5.34808 30.9661 28.8204
678 1 14.9932 18.8273 30.8607
679 1 26.6772 7.59385 18.2901
680 1 14.6222 17.6233 25.042
681 1 8.83499 8.34669 19.1958
682 1 2.88188 29.0467 4.15017
683 1 30.4418 5.06734 26.7018
684 1 3.49295 16.9872 15.0114
685 1 17.2728 29.8494 22.4183
686 1 8.78472 0.351399 12.549
687 1 31.9611 1.05518 18.4511
688 1 21.2914 23.2281 2.89701
689 1 18.537 12.5479 12.5506
690 1 13.2649 0.755282 14.5811
691 1 30.7079 6.50258 10.5052
692 1 24.1 22.1123 12.0986
693 1 31.491 13.5706 17.0565
694 1 15.3017 31.7925 26.2696
695 1 10.7999 22.7845 16.7917
696 1 5.77294 30.6804 15.5444
697 1 0.376143 17.7006 12.7873
698 1 22.8495 30.1368 23.34
699 1 9.23789 29.7255 8.85809
700 1 6.56751 20.1576 23.6076
701 1 27.6176 30.7944 11.5997
702 1 12.3503 17.0864 4.09751
703 1 21.512 4.20454 6.91749
704 1 30.0401 17.703 23.6122
705 1 16.7865 10.8674 11.2222
706 1 22.7522 31.0633 14.0427
707 1 25.2535 27.0687 27.034
708 1 3.31824 29.5798 29.2966
709 1 1.20705 19.3055 21.3521
710 1 5.82176 14.2829 26.7921
711 1 3.96084 24.3227 28.03
712 1 20.0521 30.9732 14.4211
713 1 3.90439 2.45804 8.26957
714 1 0.504373 21.6959 24.2785
715 1 1.62472 23.1425 9.81317
716 1 5.26345 28.0781 29.7158
717 1 23.6614 25.4781 19.9123
718 1 5.59256 6.15116 10.1233
719 1 21.7146 20.7061 3.81081
720 1 6.83051 21.1202 5.0489
721 1 18.2597 24.41 27.8577
722 1 9.88274 15.3628 7.20048
723 1 4.88351 16.8231 5.93081
724 1 18.4774 21.3718 17.2391
725 1 2.55817 8.01117 14.5194
726 1 21.28 24.3294 15.9036
727 1 7.73191 31.0455 0.495424
728 1 14.2316 29.4611 26.596
729 1 31.168 30.5644 19.1236
730 1 30.1821 9.05581 13.7604
731 1 28.8594 18.0887 21.2888
732 1 1.46842 15.4656 15.9242
733 1 24.8155 2.89428 22.5377
734 1 6.70923 27.851 11.8642
735 1 22.2855 10.3902 17.2223
736 1 26.5958 1.20546 11.9088
737 1 26.7833 8.35072 10.8151
738 1 11.9549 22.123 8.34394
739 1 25.9773 10.6378 10.4111
740 1 16.874 2.7925 4.62541
741 1 11.7479 16.3456 32.0112
742 1 25.1035 5.2897 22.9964
743 1 31.4231 29.0478 26.6797
744 1 4.90294 5.74954 21.5233
745 1 7.36917 16.03 6.65353
746 1 19.8571 17.0687 15.7796
747 1 27.9442 13.9122 19.7313
748 1 15.534 20.8558 6.63625
749 1 8.55737 22.7277 6.01485
750 1 10.0446 11.8081 22.4415
751 1 12.0219 29.5153 31.5329
752 1 16.4153 7.56314 3.93963
753 1 27.2101 26.2273 1.59898
754 1 11.0056 4.21604 17.2926
755 1 28.9348 0.526482 8.21385
756 1 21.796 27.8489 10.8585
757 1 0.503292 3.82492 5.31741
758 1 18.7053 12.6616 27.1251
759 1 5.98856 22.8273 31.459
760 1 12.1693 24.8144 24.4946
761 1 2.65405 20.6315 23.1679
762 1 3.3692 18.2951 1.72948
763 1 28.2805 27.1423 14.8626
764 1 10.1417 27.3413 13.7283
765 1 30.2099 11.4893 13.814
766 1 27.169 13.8427 2.16192
767 1 11.6745 29.284 20.9375
768 1 12.617 30.8182 16.1332
769 1 15.3728 21.2755 31.2844
770 1 10.9614 4.77436 24.2706
771 1 14.6888 26.5104 31.1623
772 1 28.3932 7.73579 1.5151
773 1 31.2628 0.353256 8.81507
774 1 6.67281 22.0835 7.95044
775 1 31.3829 22.1451 5.85319
776 1 29.8705 2.85254 2.22936
777 1 25.1812 12.098 29.2449
778 1 8.47006 23.5732 14.2693
779 1 17.7593 29.6206 14.1453
780 1 12.5784 25.2006 31.9549
781 1 21.2769 14.8097 15.6336
782 1 18.9515 0.356868 23.4091
783 1 1.24665 3.40312 17.6094
784 1 17.6524 3.74597 2.6158
785 1 15.7626 4.44607 15.2773
786 1 10.0788 27.8819 22.4126
787 1 10.968 26.9415 24.7558
788 1 26.3255 27.0867 9.99918
789 1 12.994 13.083 15.8329
790 1 17.1009 17.2479 31.3081
791 1 17.418 8.15978 17.0416
792 1 26.4904 11.5634 1.47506
793 1 5.63797 25.0117 3.77341
794 1 23.1211 27.969 3.94115
795 1 21.4929 28.0788 24.759
796 1 24.3921 26.6297 2.01455
797 1 23.6621 8.62464 1.62504
798 1 14.4465 31.9707 12.3329
799 1 1.62767 18.1532 8.68191
800 1 12.9137 21.6868 17.3689
801 1 27.4239 15.7648 26.9097
802 1 23.5271 21.3607 8.93737
803 1 23.771 31.869 5.75797
804 1 19.9469 17.2561 4.23707
805 1 9.04504 18.2938 25.328
806 1 31.7989 27.704 1.2649
807 1 0.349736 5.26693 21.4211
808 1 2.86782 12.1674 13.2905
809 1 28.3593 14.3621 4.38061
810 1 15.3365 24.9726 5.52318
811 1 1.33731 8.1669 7.32374
812 1 26.4653 1.15598 23.1397
813 1 27.9515 30.9018 23.9453
814 1 13.2655 4.15779 8.25452
815 1 20.4108 16.3175 21.383
816 1 30.0633 22.2484 12.0382
817 1 14.2119 7.48741 24.9933
818 1 8.66775 3.31791 9.3404
819 1 10.1786 13.5632 20.619
820 1 6.46537 9.5898 19.8145
821 1 10.0057 20.2825 13.2778
822 1 16.3023 11.6867 13.5848
823 1 27.4465 16.6327 5.24117
824 1 28.8374 18.399 6.25939
825 1 21.8531 31.4141 16.3559
826 1 10.478 25.4135 22.2973
827 1 24.9192 15.4855 23.9087
828 1 31.9519 23.5768 26.0942
829 1 13.0031 11.1787 3.67538
830 1 25.3616 30.6585 23.7167
831 1 24.6878 29.1446 21.657
832 1 15.5558 27.4088 20.7326
833 1 29.706 1.10135 0.429177
834 1 25.4145 22.3053 1.79718
835 1 26.4515 14.0304 22.1971
836 1 13.2779 6.78643 19.7659
837 1 31.7695 1.69722 24.1627
838 1 30.9609 31.1976 31.0112
839 1 4.19185 1.03033 6.13693
840 1 15.7544 30.7276 1.77857
841 1 29.1524 26.1759 19.3537
842 1 17.1277 13.1224 18.5027
843 1 17.4119 28.2136 7.54419
844 1 6.67911 17.5314 8.6581
845 1 9.3568 12.8834 18.3478
846 1 30.6799 19.7012 22.3171
847 1 19.347 18.7851 31.988
848 1 8.6591 10.0175 28.4254
849 1 10.9236 18.7259 11.328
850 1 27.3368 5.27061 29.982
851 1 16.2727 9.69845 28.4024
852 1 9.29801 25.7691 28.7952
853 1 6.7289 2.80428 18.3087
854 1 26.0913 9.22543 22.2987
855 1 2.25143 17.3727 22.4421
856 1 14.0671 5.13514 21.6694
857 1 18.9596 6.02529 12.6555
858 1 16.0139 22.6103 4.73678
859 1 3.71306 27.9115 6.34582
860 1 5.32402 20.1423 8.86971
861 1 19.2062 20.0212 19.4204
862 1 22.675 7.55232 12.5805
863 1 23.4498 0.747148 24.2936
864 1 15.7027 17.4287 19.4151
865 1 15.6055 22.1729 22.302
866 1 15.371 7.49436 28.9183
867 1 5.54369 14.4264 5.49903
868 1 21.5215 1.14099 20.3008
869 1 21.5737 24.6054 18.5906
870 1 28.4315 12.5542 11.5032
871 1 5.07259 9.8814 17.6975
872 1 4.48313 0.400059 17.7098
873 1 16.2131 23.8957 24.1781
874 1 7.7839 3.72381 6.82578
875 1 6.21684 23.6576 5.88849
876 1 19.0694 31.4425 5.31809
877 1 6.89175 16.1523 21.6021
878 1 7.01134 22.5269 24.4233
879 1 22.3854 14.92 27.3198
880 1 15.089 13.9967 1.68052
881 1 25.6176 21.0902 29.4134
882 1 6.75414 20.8673 2.34671
883 1 22.7587 24.6156 29.6472
884 1 22.4498 20.6134 6.40589
885 1 30.9284 12.9894 11.8595
886 1 0.802629 12.3188 6.03955
887 1 13.5906 30.8333 24.4621
888 1 2.13745 1.07071 16.7309
889 1 15.39 29.352 3.85485
890 1 28.4671 11.2794 25.1046
891 1 2.04148 22.5395 7.24073
892 1 29.987 28.3904 20.1224
893 1 14.419 26.4026 3.49939
894 1 10.6164 8.22718 28.0814
895 1 30.6045 31.1814 23.7366
896 1 16.6232 18.6541 24.3399
897 1 12.0527 6.30823 8.228
898 1 3.55284 11.8677 17.7124
899 1 24.3068 10.4723 24.6489
900 1 27.2505 0.420192 18.8382
901 1 6.23507 13.4816 14.3115
902 1 30.4453 6.73957 24.7885
903 1 31.8241 12.1559 21.6474
904 1 24.1636 6.61487 17.608
905 1 3.78389 18.7466 10.6913
906 1 4.35731 22.4504 7.34204
907 1 10.1079 22.0258 28.4818
908 1 24.5658 19.0212 15.3775
909 1 14.4722 25.5379 24.7599
910 1 31.9107 28.874 31.0667
911 1 19.4824 28.0073 14.571
912 1 23.8821 13.6881 22.3362
913 1 15.2601 20.13 10.9734
914 1 21.6113 8.17556 2.94995
915 1 26.9075 4.75083 8.73897
916 1 8.82696 6.54594 13.6826
917 1 6.44629 5.95552 25.5535
918 1 12.2308 26.9365 7.46019
919 1 15.9026 23.2908 7.41176
920 1 12.6557 15.6065 16.751
921 1 31.6418 14.4156 9.89858
922 1 20.8501 23.6333 27.2017
923 1 30.078 21.4439 14.1866
924 1 13.7437 25.2178 29.0826
925 1 23.1427 13.8931 11.8611
926 1 23.7371 18.0991 13.0576
927 1 20.1779 20.9206 23.2992
928 1 31.805 5.27798 18.6122
929 1 29.3478 18.6009 8.93693
930 1 6.71154 27.5511 25.6013
931 1 6.27754 14.2258 29.2774
932 1 12.7976 17.1065 11.9828
933 1 13.1622 7.85225 13.613
934 1 22.6901 5.90564 26.8093
935 1 20.0027 29.787 0.72761
936 1 18.0844 21.8098 6.43054
937 1 9.504 29.803 13.1163
938 1 18.4912 27.7136 18.45
939 1 29.9091 23.5882 31.2739
940 1 4.53417 26.2191 1.65945
941 1 0.430226 20.3034 13.3229
942 1 30.8973 4.2796 7.09875
943 1 29.6477 26.5825 29.1126
944 1 15.2118 6.62254 5.92399
945 1 18.4348 17.4568 28.3886
946 1 6.63987 16.6314 4.24391
947 1 20.7815 22.418 5.44594
948 1 10.8315 0.356819 5.78323
949 1 4.05867 30.9555 2.8654
950 1 25.4577 9.49324 29.672
951 1 18.2621 17.4329 22.6626
952 1 30.264 8.12986 22.6561
953 1 7.93424 11.3918 14.642
954 1 29.9712 14.3323 30.0166
955 1 21.2587 18.0882 6.6052
956 1 23.0671 16.9777 10.694
957 1 5.33176 8.34802 21.7169
958 1 8.79678 11.5074 5.66661
959 1 30.5498 15.8411 27.6952
960 1 25.9244 30.6316 30.6594
961 1 26.7901 29.8519 18.1328
962 1 26.3805 11.565 23.3565
963 1 15.0459 13.4058 6.67067
964 1 23.5591 6.41731 3.07088
965 1 29.8642 4.40098 20.1009
966 1 25.3422 6.89866 30.2935
967 1 22.0315 25.9409 8.88689
968 1 8.98319 4.96422 15.7854