ITEM: TIMESTEP
0
ITEM: NUMBER OF ATOMS
2000
ITEM: BOX BOUNDS pp pp pp
0.299875	32.130125
0.299875	32.130125
0.299875	32.130125
ITEM: ATOMS id type x y z
1	1	8.092015	21.786256	22.114278
2	1	25.709436	0.642182	28.735472
3	1	19.936839	11.678762	8.365177
4	1	16.148350	26.472626	11.942241
5	1	23.451445	19.797725	24.713329
6	1	3.807781	19.130073	21.311426
7	1	22.816842	23.686076	25.459477
8	1	9.619415	18.586708	18.010003
9	1	15.044061	16.958462	17.017256
10	1	21.781875	3.687524	31.132130
11	1	19.492743	18.781133	8.062615
12	1	6.570570	4.732554	31.828131
13	1	22.349528	11.915664	24.161566
14	1	3.959765	6.494170	5.570655
15	1	3.428279	30.659214	25.077518
16	1	26.004556	19.589051	24.116754
17	1	7.341274	26.474099	30.392485
18	1	15.536531	29.552531	6.332965
19	1	27.895263	18.359729	12.951815
20	1	2.998798	24.668737	8.603270
21	1	31.701211	15.313334	12.487454
22	1	23.587896	28.710205	13.512592
23	1	8.857219	29.356721	17.427155
24	1	20.582648	31.566406	18.514758
25	1	16.686609	29.378564	16.626279
26	1	23.221410	17.251658	28.133363
27	1	30.324656	28.650558	5.173904
28	1	25.085642	25.829509	14.650208
29	1	9.077631	29.016418	20.125868
30	1	18.036285	26.896422	16.369069
31	1	27.890734	3.062607	12.601202
32	1	25.703683	1.312915	31.268115
33	1	21.302400	3.762239	19.499095
34	1	26.207510	20.570836	3.582470
35	1	24.790967	13.008752	24.466185
36	1	5.864177	0.625297	1.556405
37	1	22.032826	18.905355	22.994766
38	1	18.125287	31.822011	1.164218
39	1	25.475115	17.546375	25.557329
40	1	23.671925	18.387397	17.698181
41	1	28.913146	0.582466	21.978706
42	1	17.274420	18.728320	6.760675
43	1	8.442137	26.572948	23.734144
44	1	24.477604	21.596541	14.923870
45	1	22.735108	16.126956	22.766425
46	1	16.255575	27.411564	4.841724
47	1	21.552511	19.213412	18.719631
48	1	16.962612	14.921118	16.447168
49	1	21.524362	9.544467	0.690030
50	1	25.076085	10.282396	2.862610
51	1	10.975922	28.204561	3.640595
52	1	1.384818	7.399702	19.415129
53	1	5.513760	8.376274	26.130160
54	1	5.949379	3.679293	9.697895
55	1	12.380126	16.368264	25.368998
56	1	26.337217	1.738023	20.635084
57	1	15.131706	14.368760	9.018324
58	1	18.772536	15.170120	23.592671
59	1	11.122688	22.348330	25.646871
60	1	21.049366	18.350229	2.194994
61	1	11.560851	17.635284	6.571474
62	1	9.078479	9.103631	15.010049
63	1	13.744097	28.200586	24.516489
64	1	5.147215	4.490145	19.365968
65	1	8.632305	13.274919	2.349387
66	1	24.588764	25.671611	8.821037
67	1	25.064423	6.512921	5.047664
68	1	30.073501	25.729326	8.388762
69	1	25.470721	31.179512	10.852619
70	1	19.082629	3.527932	11.347349
71	1	22.140949	25.508103	21.701496
72	1	4.563306	14.183901	1.220017
73	1	22.351199	2.401333	22.509809
74	1	2.287509	21.553514	14.356839
75	1	30.578267	2.859101	22.154432
76	1	23.998566	18.545587	6.759382
77	1	23.434366	8.444833	31.010559
78	1	23.149131	22.703152	16.929764
79	1	12.120660	24.445898	20.576120
80	1	1.039425	28.618271	15.424191
81	1	7.279956	19.568184	18.362214
82	1	0.986104	20.296785	30.378955
83	1	24.167380	11.267939	19.002137
84	1	10.583139	30.235752	10.981043
85	1	28.830095	30.552690	19.706575
86	1	12.995919	13.501930	3.001416
87	1	30.649252	6.981927	2.663086
88	1	23.361428	4.189710	1.721510
89	1	15.812860	17.648397	29.033550
90	1	14.415127	2.348135	4.656648
91	1	2.781387	3.233850	30.146506
92	1	0.800451	28.819652	20.028756
93	1	14.749985	15.658412	21.034344
94	1	7.941117	30.049123	11.032529
95	1	19.312399	14.636394	11.498986
96	1	1.257452	19.137561	11.065935
97	1	5.972526	18.643469	29.982712
98	1	10.154804	5.338123	9.975569
99	1	6.368651	30.050999	2.285884
100	1	19.457835	17.730897	13.085543
101	1	19.160754	11.810473	31.884839
102	1	21.286236	16.819607	31.934356
103	1	8.015092	19.006448	3.617565
104	1	7.047031	16.439453	26.132571
105	1	6.963020	25.062703	25.089596
106	1	19.996966	18.840318	21.493580
107	1	25.579287	4.129672	20.480224
108	1	22.597736	20.826008	13.321568
109	1	5.586468	23.441777	26.344371
110	1	4.853467	20.825651	11.995941
111	1	16.371092	3.367804	28.152410
112	1	13.488502	4.045973	24.804978
113	1	20.294748	1.575168	0.451276
114	1	19.984168	5.458226	30.411116
115	1	7.125523	11.877972	29.981533
116	1	10.615273	17.248381	23.622571
117	1	6.643544	7.759607	8.798610
118	1	20.824775	17.160403	27.167641
119	1	5.267982	29.336990	7.695367
120	1	30.240671	20.285501	7.230607
121	1	20.199578	8.647389	13.046133
122	1	23.345997	30.341995	3.501170
123	1	1.220102	15.651062	8.297875
124	1	2.979549	29.474479	8.399840
125	1	8.302197	16.209360	23.827404
126	1	1.011663	4.758785	31.477871
127	1	9.606781	4.543413	22.403324
128	1	0.605357	8.726651	3.101780
129	1	3.260824	0.396041	29.988701
130	1	23.603136	4.551843	18.781581
131	1	28.782299	5.359750	6.582824
132	1	19.546438	29.553634	19.614892
133	1	31.961873	4.640416	9.395827
134	1	3.814291	11.306923	10.707396
135	1	17.386670	5.090173	26.355699
136	1	2.156129	3.588833	15.304088
137	1	6.936465	15.873435	12.036897
138	1	12.052828	9.856065	31.666704
139	1	13.888771	0.731111	22.208214
140	1	26.760083	12.614615	9.439191
141	1	16.598440	4.619108	0.486448
142	1	32.006300	7.771639	15.138884
143	1	1.856200	26.532075	16.677416
144	1	27.422217	9.692742	2.939139
145	1	9.423001	24.130224	2.604059
146	1	6.679954	27.400304	2.841600
147	1	13.811308	18.276015	20.732247
148	1	6.180142	13.791242	9.988047
149	1	16.356078	6.152702	13.269577
150	1	16.704828	29.683138	27.133682
151	1	27.931846	7.599385	13.581308
152	1	7.460799	8.931644	13.101828
153	1	21.112910	11.051362	30.539297
154	1	29.049760	29.714595	21.993581
155	1	24.629543	15.592794	12.870727
156	1	6.506534	21.444969	16.621888
157	1	8.841249	26.172734	26.222900
158	1	21.094659	5.727791	3.027874
159	1	28.212634	12.869272	32.053745
160	1	27.851275	16.224871	2.741409
161	1	31.784004	18.682775	16.860207
162	1	31.466638	1.495879	4.371412
163	1	28.017286	21.139901	12.430605
164	1	10.375297	29.587299	15.338989
165	1	3.462466	22.913073	31.171283
166	1	4.333167	28.647203	2.096224
167	1	22.099158	9.868660	11.674044
168	1	19.191294	4.616590	18.104804
169	1	11.996590	17.900416	17.457152
170	1	6.358770	26.074311	16.516722
171	1	27.991466	29.719478	31.225854
172	1	14.324152	11.532115	11.843543
173	1	8.427776	15.305230	14.102917
174	1	3.102057	24.772524	3.290658
175	1	8.989501	5.899881	25.355306
176	1	27.036215	24.261717	23.148662
177	1	14.380612	15.343533	28.648842
178	1	21.909441	15.757667	29.714941
179	1	25.407449	11.305727	14.490432
180	1	21.817992	24.661288	4.982463
181	1	25.829675	7.699457	2.945658
182	1	16.300641	10.958669	6.426463
183	1	29.685268	25.272956	1.362574
184	1	23.107000	10.637247	29.073514
185	1	20.322237	26.714310	22.859347
186	1	4.228181	12.971163	3.356098
187	1	4.245130	16.439053	26.250520
188	1	5.827771	12.888626	24.566919
189	1	2.364881	27.207526	2.366794
190	1	9.306679	6.051836	27.864068
191	1	12.967158	7.587736	6.245860
192	1	26.841139	16.560712	20.168922
193	1	9.888044	10.292585	7.897962
194	1	17.998696	7.866002	14.396021
195	1	17.075678	14.562034	5.452551
196	1	31.236288	10.853877	4.176398
197	1	14.910107	30.833105	28.769767
198	1	26.715492	2.825958	29.499123
199	1	19.200344	9.125979	18.695643
200	1	24.441857	17.945616	23.064982
201	1	12.190494	15.600313	27.702864
202	1	16.302694	25.241207	29.487726
203	1	26.669637	31.883948	16.373993
204	1	18.033063	29.570737	9.693138
205	1	9.175130	0.295894	30.501564
206	1	16.347891	1.638270	8.681025
207	1	30.718237	0.556408	28.745835
208	1	17.583280	15.346492	9.496499
209	1	5.811831	11.938536	16.206552
210	1	21.491774	12.000206	15.521270
211	1	28.813177	26.016014	10.673492
212	1	23.739615	15.594169	3.728902
213	1	9.068688	17.694589	7.638105
214	1	14.119593	23.780688	3.521692
215	1	1.842442	26.763613	19.290097
216	1	10.590820	25.176917	17.665941
217	1	16.694339	22.280217	11.080822
218	1	17.887791	3.328034	9.169684
219	1	17.690269	10.791551	17.494439
220	1	6.550834	18.260422	25.001202
221	1	19.785527	21.940340	21.085051
222	1	17.044382	27.473017	30.754098
223	1	29.421438	8.236596	11.483483
224	1	29.427138	21.386840	3.048052
225	1	25.083595	25.881270	29.453974
226	1	7.195502	26.117276	9.571178
227	1	17.468642	31.692849	15.439679
228	1	6.973977	20.650604	31.537454
229	1	15.093896	3.109338	17.671264
230	1	1.648215	13.777700	12.213008
231	1	8.204912	30.558770	4.811455
232	1	31.861199	12.753239	2.494490
233	1	2.923741	0.576841	0.974645
234	1	6.502332	1.365152	16.264854
235	1	15.201934	2.995859	23.054843
236	1	13.370085	17.777241	8.219409
237	1	17.969345	31.575815	18.006818
238	1	2.892768	15.676559	24.016615
239	1	6.120584	7.658982	6.462319
240	1	1.460735	22.612659	18.635078
241	1	19.170043	21.937486	10.750463
242	1	18.769397	21.740136	27.868234
243	1	14.101118	9.348149	10.364752
244	1	2.433286	11.558711	22.291404
245	1	31.241550	1.331371	12.919080
246	1	7.973810	24.505568	7.645076
247	1	14.645964	15.051293	15.400177
248	1	10.543234	13.296795	11.664018
249	1	25.853093	23.567128	29.458341
250	1	24.874393	16.088794	21.441218
251	1	12.832339	10.859996	17.267598
252	1	14.845344	15.763270	12.896939
253	1	21.450532	9.700776	4.886271
254	1	10.741485	9.128610	17.312975
255	1	2.656054	5.082889	22.696653
256	1	12.891628	25.285547	5.481923
257	1	14.091772	25.669728	15.449608
258	1	20.980826	25.927980	31.224329
259	1	4.391650	27.982907	15.761634
260	1	6.120609	29.836431	24.514707
261	1	9.665127	29.687165	31.520632
262	1	10.426560	13.805438	28.133954
263	1	21.782227	21.298191	10.796401
264	1	9.972427	8.136628	3.022080
265	1	5.537576	24.568628	8.239130
266	1	2.010372	16.353599	30.589040
267	1	2.364000	22.727292	2.117488
268	1	29.840656	5.561375	22.355847
269	1	5.114251	12.008647	28.269418
270	1	5.599724	14.367121	17.279731
271	1	12.610269	20.446127	20.723377
272	1	16.749667	9.956870	15.302234
273	1	11.806838	5.215805	28.521830
274	1	9.762688	20.277169	26.901724
275	1	4.209646	0.964793	15.331021
276	1	25.994664	4.631815	13.682732
277	1	24.904447	25.284727	24.826153
278	1	2.381000	17.626753	17.213817
279	1	27.346737	29.630832	15.742929
280	1	7.920634	9.662660	10.108441
281	1	8.642378	12.044820	32.089565
282	1	26.568881	18.950802	21.598550
283	1	27.276200	15.001222	9.999649
284	1	18.330188	25.377267	23.352140
285	1	19.602790	7.057209	17.104961
286	1	2.289766	3.062962	1.112127
287	1	30.972442	1.871896	6.816854
288	1	29.480914	14.883024	11.177572
289	1	29.662149	2.717240	14.454538
290	1	6.978324	1.928095	22.492146
291	1	5.903818	2.530428	5.531410
292	1	6.263637	31.448979	6.440620
293	1	1.710252	2.535033	3.594579
294	1	29.817987	9.245135	2.792808
295	1	9.904878	12.742982	24.966943
296	1	23.187575	14.410278	31.857772
297	1	17.415856	14.413237	25.891897
298	1	18.902518	8.692358	26.952418
299	1	18.530252	7.601658	9.161198
300	1	13.300396	27.403383	1.123917
301	1	6.122156	2.094902	25.753997
302	1	4.919753	4.197245	26.497282
303	1	8.082462	15.301199	27.976685
304	1	8.010352	6.188322	6.123453
305	1	2.580088	16.056650	1.158270
306	1	3.984143	25.178319	15.775930
307	1	1.084033	24.006222	4.673455
308	1	10.853680	18.630733	31.530540
309	1	1.187145	11.961015	0.357455
310	1	3.063998	25.385748	23.468993
311	1	27.554156	11.271066	7.125690
312	1	2.254929	15.755590	13.529497
313	1	10.679331	30.798489	3.784890
314	1	17.556339	29.590762	31.937132
315	1	21.831750	11.417396	6.581787
316	1	13.633568	11.180457	6.654112
317	1	4.389536	31.407629	13.000386
318	1	14.660597	11.853763	18.853794
319	1	13.101874	19.234447	10.146363
320	1	23.217418	31.832490	18.572143
321	1	26.937636	21.547981	22.623793
322	1	29.212581	16.548981	19.360736
323	1	29.031590	4.509852	24.527225
324	1	12.851804	29.310267	28.695198
325	1	12.036834	1.658283	20.224933
326	1	1.334735	6.831852	9.687825
327	1	12.110589	8.968534	24.841488
328	1	28.570880	27.759782	8.581586
329	1	19.271842	14.909516	4.176403
330	1	29.156412	8.647297	17.945945
331	1	7.221936	23.149611	3.455303
332	1	4.625732	10.339657	3.152084
333	1	10.917298	17.872099	27.181530
334	1	1.837162	30.158775	21.745464
335	1	7.547832	28.700053	22.655210
336	1	28.863806	15.579265	6.583823
337	1	12.351848	2.647473	29.679437
338	1	20.647291	11.281930	22.254776
339	1	7.689998	29.234248	6.864796
340	1	25.839031	24.551798	10.782672
341	1	10.928744	14.130051	9.343917
342	1	24.413419	1.370160	10.059366
343	1	29.444526	0.599520	2.970313
344	1	17.491977	17.921442	9.350991
345	1	11.448404	20.565460	1.617313
346	1	7.404616	16.510320	30.207571
347	1	27.503435	20.068774	27.809853
348	1	28.332532	16.641050	14.964145
349	1	7.012464	2.856802	29.897061
350	1	16.942797	31.722026	12.730337
351	1	22.650593	7.883404	21.511271
352	1	1.850518	30.706730	31.305131
353	1	8.142978	16.103037	2.505439
354	1	22.488919	10.283234	26.417530
355	1	17.895040	2.276349	0.487891
356	1	20.915075	13.416233	13.505374
357	1	17.715855	8.631267	2.051000
358	1	21.606242	12.316061	1.244395
359	1	15.951187	29.699970	24.660450
360	1	2.840323	3.980004	27.659821
361	1	10.692428	26.550459	5.378989
362	1	25.444153	2.552286	27.189248
363	1	24.665444	9.875170	12.316377
364	1	17.322908	25.637287	25.633024
365	1	27.780945	25.255000	3.888415
366	1	28.745747	10.203519	4.976415
367	1	28.392151	19.592716	23.308260
368	1	27.501377	20.554623	1.328445
369	1	2.498177	1.987689	19.445302
370	1	27.702984	3.393550	19.012804
371	1	25.198130	24.408159	27.025784
372	1	6.451890	9.546315	15.499295
373	1	29.230706	0.660154	5.503311
374	1	25.619264	24.629636	0.422751
375	1	19.265181	16.317680	30.562311
376	1	27.981686	1.508728	27.582133
377	1	5.724456	18.738316	13.753770
378	1	7.334050	2.375208	11.392231
379	1	3.114310	0.422323	21.356296
380	1	11.796175	4.910963	30.950933
381	1	16.841953	27.201242	9.747161
382	1	5.670433	15.196519	7.898735
383	1	3.346471	28.768930	19.971304
384	1	20.617179	6.594363	22.210626
385	1	30.640506	24.230916	21.034914
386	1	25.674897	28.822081	11.750738
387	1	15.164417	5.232726	19.403347
388	1	22.559468	25.959028	24.113528
389	1	6.820204	30.373736	13.071496
390	1	29.349610	4.906408	9.020826
391	1	18.058307	23.194645	8.780666
392	1	21.268417	8.017938	26.152674
393	1	14.037473	25.684520	19.873172
394	1	27.529513	24.864087	15.221858
395	1	16.723984	1.317407	19.110394
396	1	21.037357	5.153339	11.678853
397	1	4.198887	27.362189	11.894609
398	1	6.481049	3.941132	15.997753
399	1	20.740670	4.588460	25.700423
400	1	21.112300	29.280535	12.812107
401	1	23.047409	11.734829	13.035921
402	1	29.935601	30.022619	12.322984
403	1	18.264870	12.571809	10.038411
404	1	13.731635	3.011328	15.587833
405	1	21.730410	28.378902	7.718965
406	1	16.000191	16.435143	1.769360
407	1	3.596367	13.852245	25.641738
408	1	17.458667	3.909227	13.269930
409	1	26.834706	11.155607	30.804668
410	1	9.405361	4.675981	32.010689
411	1	8.300770	17.581764	19.886432
412	1	4.488013	16.845024	12.588989
413	1	16.462702	2.744089	30.435918
414	1	10.657849	23.919652	4.864658
415	1	0.611307	15.384542	2.864119
416	1	20.956368	25.721086	11.221885
417	1	24.104004	11.892081	16.487681
418	1	7.858746	19.814707	8.646574
419	1	15.282793	7.562784	18.413858
420	1	22.825653	14.370955	24.807865
421	1	14.657243	25.120261	1.507885
422	1	9.680407	31.155225	26.705316
423	1	24.643189	14.477063	17.123611
424	1	31.365904	7.409021	17.447140
425	1	28.163320	28.447748	11.006523
426	1	23.917179	30.525413	25.705466
427	1	27.673120	12.253941	14.200492
428	1	22.950074	28.542948	26.819983
429	1	18.625830	13.128410	29.690474
430	1	30.561490	16.786006	1.805608
431	1	30.669649	19.475994	4.867320
432	1	31.768689	21.993034	8.327490
433	1	23.717463	31.899857	30.076939
434	1	21.716059	15.039564	10.337185
435	1	4.983566	13.084325	30.868128
436	1	29.380591	24.772226	24.398209
437	1	30.473246	12.517744	0.344198
438	1	15.252301	19.115423	8.507358
439	1	25.347054	9.364198	19.869297
440	1	11.611542	5.721936	21.328571
441	1	30.322156	9.665714	29.584070
442	1	24.897262	16.409214	6.041230
443	1	4.488445	25.873527	25.776129
444	1	31.118901	17.960803	26.320672
445	1	31.613830	19.641475	9.103569
446	1	13.635328	24.569159	7.892124
447	1	22.171258	19.301340	31.978200
448	1	19.936848	2.176359	21.966507
449	1	25.520284	23.532131	16.078280
450	1	5.154372	4.387705	12.051278
451	1	2.528625	19.637538	15.918575
452	1	23.512427	20.718781	19.211882
453	1	23.959113	19.727618	11.089631
454	1	12.313839	14.792257	30.083304
455	1	30.461697	2.645750	9.118196
456	1	12.725791	4.206743	19.465001
457	1	13.817339	8.312141	0.671937
458	1	8.334862	6.465871	3.452424
459	1	11.171030	17.929916	13.597083
460	1	32.003979	21.419325	10.805357
461	1	15.912625	31.774059	20.873663
462	1	11.861032	22.532026	3.411148
463	1	2.778306	24.611663	18.074606
464	1	29.525876	20.311868	16.935875
465	1	26.062693	27.260143	7.340065
466	1	12.751071	17.645387	30.046368
467	1	4.542642	29.727767	17.801040
468	1	2.728416	4.857337	25.172663
469	1	19.623618	19.407130	27.375320
470	1	15.391459	4.019571	9.566306
471	1	28.676548	7.437651	9.178754
472	1	27.095993	10.083378	18.272633
473	1	2.412384	5.760576	29.493844
474	1	27.418822	22.494962	7.842304
475	1	17.632780	11.030922	22.357977
476	1	29.542565	30.341477	9.772894
477	1	3.468201	12.036853	5.541287
478	1	20.510950	25.907346	28.578085
479	1	9.136388	21.283522	17.877659
480	1	17.427826	25.826693	19.283102
481	1	14.777065	10.595484	22.069802
482	1	13.131840	3.607785	2.933703
483	1	29.832592	16.816106	12.857141
484	1	24.342896	7.624353	7.237419
485	1	32.049588	28.503655	12.878404
486	1	16.889417	19.893586	18.394043
487	1	6.979006	21.458578	10.597875
488	1	4.994320	23.938100	23.974264
489	1	30.904275	23.180882	1.763901
490	1	28.463042	17.161066	10.741518
491	1	10.712850	12.573163	4.146510
492	1	2.673013	19.925388	28.380795
493	1	4.108612	26.556297	20.787040
494	1	23.347421	8.437218	19.106222
495	1	6.933408	30.839202	8.855222
496	1	5.200058	10.611781	30.855047
497	1	9.645203	2.364285	2.731021
498	1	12.394465	9.839228	12.333862
499	1	10.774749	22.297309	14.387214
500	1	11.997906	23.099140	12.667971
501	1	21.017382	31.916164	12.264759
502	1	4.201635	3.225754	21.499469
503	1	17.417836	16.494028	11.892034
504	1	11.294736	14.981712	5.116574
505	1	29.456125	15.930025	8.787085
506	1	0.301382	13.088287	7.682526
507	1	10.361501	27.380043	16.353071
508	1	2.140010	25.018131	29.982395
509	1	5.802246	18.109134	22.488380
510	1	20.061189	11.611076	17.626087
511	1	4.208307	23.156666	19.528467
512	1	19.587254	6.300859	6.694770
513	1	14.658745	6.617975	11.464338
514	1	16.503754	5.425402	17.401307
515	1	23.493809	19.718002	2.450312
516	1	12.087974	12.141711	13.350578
517	1	26.736508	22.270238	31.453419
518	1	5.434232	31.720292	26.284623
519	1	30.470451	8.423084	32.086762
520	1	20.836634	4.235481	23.347207
521	1	7.049125	20.555930	26.188902
522	1	27.837252	21.696048	18.390122
523	1	3.347109	9.294550	22.958368
524	1	15.357917	6.584461	31.126363
525	1	3.845241	9.751640	27.700682
526	1	23.212088	9.455299	6.807288
527	1	31.563926	26.510477	20.757915
528	1	23.925348	2.546484	29.526215
529	1	17.156057	3.735398	19.253011
530	1	28.763663	5.165662	2.617753
531	1	28.893770	28.029373	27.030859
532	1	2.288555	13.639080	1.891704
533	1	26.305894	9.106675	8.355542
534	1	3.197100	31.507221	27.433028
535	1	6.056564	23.400925	15.077744
536	1	26.943837	28.532359	23.072567
537	1	19.841440	7.552398	1.438609
538	1	23.628628	27.630019	15.951844
539	1	17.254896	10.033934	4.141003
540	1	31.838747	8.736934	25.673182
541	1	3.663056	28.100439	24.656071
542	1	29.485680	7.418000	15.623112
543	1	15.061305	20.326396	28.739140
544	1	24.168628	22.922420	31.237771
545	1	27.408108	19.394079	10.513989
546	1	1.543987	20.389716	1.136733
547	1	2.664196	22.960025	22.956293
548	1	25.196395	18.639032	19.618603
549	1	21.020650	12.038261	28.220860
550	1	16.382581	24.812415	16.057984
551	1	8.529129	18.731116	30.633943
552	1	26.254407	21.073946	20.126224
553	1	5.633821	13.931677	21.478281
554	1	6.658851	7.974264	17.794869
555	1	6.925345	2.476682	3.143262
556	1	29.833074	19.674080	27.872684
557	1	6.295437	8.995465	23.929937
558	1	2.693184	8.551020	25.725313
559	1	10.043112	31.519833	17.067843
560	1	20.377240	14.322439	19.880150
561	1	25.668509	31.008501	3.989087
562	1	4.925304	30.807237	19.974798
563	1	1.909387	26.584425	4.929400
564	1	27.326904	29.034293	6.288236
565	1	13.394094	15.966953	2.107084
566	1	9.211884	26.595406	2.586898
567	1	31.007311	13.745860	4.540218
568	1	12.269376	30.232462	13.283811
569	1	5.824422	27.802879	32.107081
570	1	24.964949	10.053838	27.243160
571	1	31.086032	21.529282	29.385720
572	1	29.371286	17.639616	17.029613
573	1	22.628311	15.089002	20.408415
574	1	10.640862	0.961621	28.632938
575	1	29.435079	26.248965	16.802220
576	1	22.647819	20.348892	16.585897
577	1	13.069336	20.126113	7.129663
578	1	17.440246	25.450521	8.095792
579	1	27.998161	2.979673	10.090788
580	1	2.922612	31.516048	10.838812
581	1	21.611818	18.737116	11.841392
582	1	15.465166	1.194023	6.479553
583	1	25.149265	23.375222	8.513690
584	1	27.612446	21.048874	25.234463
585	1	1.266398	2.948601	7.946199
586	1	0.860289	5.292487	11.680426
587	1	29.678325	27.411388	12.787167
588	1	6.294911	6.571241	12.634348
589	1	14.144523	2.329563	31.536046
590	1	4.736081	20.989015	14.550185
591	1	31.129356	3.194755	32.080599
592	1	20.052443	10.678136	26.192761
593	1	30.568187	5.770591	4.878165
594	1	21.879925	0.703534	9.948702
595	1	0.967547	3.211065	26.201981
596	1	3.737644	11.730196	0.929841
597	1	3.831091	14.816626	9.238394
598	1	26.181771	25.706096	19.501960
599	1	7.363147	30.151654	27.001853
600	1	23.021800	21.823084	1.473433
601	1	17.911249	6.528951	22.266897
602	1	4.261084	16.200901	21.788894
603	1	19.944444	3.242726	16.053065
604	1	2.552216	9.005443	10.184405
605	1	27.363824	15.668904	12.560355
606	1	14.740919	13.451733	30.620444
607	1	10.234478	4.188514	26.657731
608	1	26.420764	18.993497	5.726162
609	1	9.639932	9.628754	0.911677
610	1	25.615297	8.822962	14.321033
611	1	6.351347	32.015141	10.978315
612	1	23.296084	17.412506	1.701311
613	1	22.391112	12.584792	20.622083
614	1	21.696580	29.074463	15.312784
615	1	13.197389	16.590068	19.071281
616	1	11.925822	31.473858	21.996607
617	1	30.144576	12.968294	24.834210
618	1	23.834005	11.202421	4.929058
619	1	17.795241	22.729658	15.296380
620	1	22.248893	6.474874	8.332946
621	1	4.599066	31.717638	8.688878
622	1	20.222548	4.093138	13.755811
623	1	21.470721	15.396638	5.187609
624	1	5.933624	6.393782	1.971985
625	1	2.420156	17.435289	6.080062
626	1	26.240876	13.490192	27.358468
627	1	8.195280	22.575914	1.028439
628	1	23.727809	25.552599	4.071248
629	1	24.184484	19.985541	4.721615
630	1	31.209999	11.771456	9.574279
631	1	30.903790	16.069134	15.294409
632	1	28.665239	8.714123	6.953817
633	1	21.205345	21.081464	28.525743
634	1	17.773876	10.327739	8.417615
635	1	12.163637	15.170162	20.800037
636	1	20.502876	15.160346	25.390738
637	1	14.982207	9.181234	7.766895
638	1	7.033559	28.356205	9.201371
639	1	18.041834	6.072874	2.598571
640	1	24.535300	16.982233	8.629478
641	1	6.398804	0.510604	30.563055
642	1	10.494187	8.244532	12.966800
643	1	8.789992	31.512968	7.218055
644	1	8.088455	11.746487	20.534035
645	1	14.213040	11.676342	26.314723
646	1	22.535879	21.702668	23.356548
647	1	14.272577	22.573882	11.879362
648	1	2.122045	18.354248	26.577682
649	1	5.700851	16.481813	28.319105
650	1	27.052441	6.031898	0.527228
651	1	23.718743	8.672822	4.297712
652	1	4.415359	16.311474	17.318870
653	1	21.987995	29.291191	17.868305
654	1	22.348862	19.310281	27.121653
655	1	16.388305	21.337162	24.604455
656	1	4.676214	23.698409	1.542359
657	1	25.986569	17.335880	14.175435
658	1	16.612099	14.108666	14.095969
659	1	1.587331	11.811021	16.387289
660	1	26.636427	4.423520	5.569259
661	1	31.047793	14.290638	22.745746
662	1	3.561844	30.585391	6.114438
663	1	16.227809	16.677683	26.756720
664	1	18.123169	26.457793	5.976872
665	1	2.837015	20.291206	3.435095
666	1	3.843921	13.425656	23.140538
667	1	1.758283	1.568327	5.862685
668	1	9.648751	30.397041	22.511750
669	1	11.416543	22.387848	19.308863
670	1	9.837383	13.338937	13.985062
671	1	17.123950	29.739831	29.549935
672	1	29.372470	12.424047	16.031752
673	1	26.882682	0.738796	9.339994
674	1	27.789692	5.792032	20.312614
675	1	21.775906	23.653836	32.123659
676	1	14.088511	28.374938	12.668102
677	1	5.350192	30.953466	28.815493
678	1	14.994065	18.810097	30.864928
679	1	26.678114	7.589083	18.301375
680	1	14.642272	17.620660	25.027001
681	1	8.847927	8.358279	19.183522
682	1	2.887249	29.053735	4.148574
683	1	30.439253	5.060863	26.714053
684	1	3.513748	17.092647	15.055973
685	1	17.272273	29.855018	22.410466
686	1	8.797543	0.337109	12.534520
687	1	31.962592	1.040841	18.459828
688	1	21.293257	23.232392	2.889986
689	1	18.535633	12.541065	12.552496
690	1	13.283496	0.747761	14.578211
691	1	30.724041	6.475472	10.527948
692	1	24.090889	22.127508	12.108076
693	1	31.490222	13.460949	17.256216
694	1	15.306835	31.793024	26.259183
695	1	10.813218	22.787685	16.790590
696	1	5.788486	30.676724	15.543688
697	1	0.351053	17.720125	12.768406
698	1	22.848388	30.137701	23.337352
699	1	9.247148	29.718429	8.851216
700	1	6.584233	20.162931	23.613469
701	1	27.623192	30.793541	11.598803
702	1	12.359315	17.083973	4.096535
703	1	21.506043	4.205208	6.926721
704	1	30.030112	17.701919	23.628812
705	1	16.790785	10.862788	11.229960
706	1	22.754900	31.069476	14.037951
707	1	25.254370	27.073989	27.037826
708	1	3.318769	29.572140	29.295000
709	1	1.199281	19.292648	21.357376
710	1	5.829884	14.292199	26.788982
711	1	3.965358	24.318880	28.032966
712	1	20.055404	30.979144	14.416011
713	1	3.916434	2.478283	8.244466
714	1	0.504266	21.691927	24.290025
715	1	1.633703	23.139297	9.810993
716	1	5.263066	28.074252	29.721078
717	1	23.662473	25.482002	19.909722
718	1	5.590936	6.081395	10.190911
719	1	21.718708	20.714500	3.800519
720	1	6.839580	21.101795	5.056481
721	1	18.264285	24.410336	27.855115
722	1	9.895448	15.345300	7.212903
723	1	4.906160	16.767971	5.914000
724	1	18.487928	21.387449	17.238810
725	1	2.552722	7.974307	14.570854
726	1	21.282449	24.332322	15.900603
727	1	7.729150	31.034914	0.484046
728	1	14.235181	29.461997	26.589637
729	1	31.168877	30.555573	19.127517
730	1	30.192361	9.035842	13.800866
731	1	28.849548	18.085127	21.300232
732	1	1.490752	15.538407	15.953629
733	1	24.808323	2.889740	22.541593
734	1	6.716346	27.845086	11.864508
735	1	22.290468	10.390899	17.220662
736	1	26.598806	1.204764	11.906987
737	1	26.809454	8.350354	10.792484
738	1	11.965977	22.125770	8.338720
739	1	26.022565	10.656458	10.411480
740	1	16.891068	2.775466	4.653574
741	1	11.746874	16.335331	32.012596
742	1	25.087254	5.286938	22.997974
743	1	31.424790	29.042160	26.684124
744	1	4.904244	5.746837	21.527640
745	1	7.421787	16.017899	6.620337
746	1	19.863159	17.063750	15.772132
747	1	27.926767	13.925119	19.739489
748	1	15.542147	20.854794	6.631331
749	1	8.563949	22.708491	6.016019
750	1	10.064121	11.816125	22.440552
751	1	12.028933	29.520522	31.521538
752	1	16.407981	7.554432	3.951575
753	1	27.207286	26.234006	1.600938
754	1	11.021416	4.231705	17.285956
755	1	28.935213	0.529084	8.219322
756	1	21.802036	27.854640	10.851912
757	1	0.517061	3.813386	5.336151
758	1	18.701352	12.663453	27.129170
759	1	5.994185	22.824974	31.457167
760	1	12.173927	24.816627	24.490155
761	1	2.649296	20.627186	23.169759
762	1	3.415470	18.252990	1.701815
763	1	28.281743	27.137540	14.861656
764	1	10.146976	27.342244	13.724718
765	1	30.195156	11.480327	13.836251
766	1	27.191759	13.839221	2.188444
767	1	11.673567	29.290538	20.929941
768	1	12.621399	30.823546	16.132792
769	1	15.380285	21.265557	31.278034
770	1	10.957442	4.769917	24.273156
771	1	14.697203	26.507961	31.154318
772	1	28.367938	7.716418	1.516422
773	1	31.268168	0.352177	8.819093
774	1	6.669481	22.090617	7.960256
775	1	31.387331	22.155061	5.837957
776	1	29.848550	2.856404	2.217521
777	1	25.181039	12.097222	29.256265
778	1	8.455976	23.568371	14.265930
779	1	17.764947	29.623039	14.143347
780	1	12.587835	25.196823	31.943585
781	1	21.277281	14.806422	15.634931
782	1	18.950274	0.363398	23.399682
783	1	1.246694	3.383075	17.624782
784	1	17.650759	3.735063	2.615827
785	1	15.751263	4.452850	15.265183
786	1	10.080835	27.886130	22.406117
787	1	10.973744	26.943919	24.749319
788	1	26.332361	27.095419	9.998310
789	1	12.948760	13.072388	15.790931
790	1	17.095689	17.234824	31.307491
791	1	17.413692	8.160330	17.034112
792	1	26.504224	11.562543	1.492208
793	1	5.645773	25.005434	3.773736
794	1	23.122808	27.978882	3.939505
795	1	21.494192	28.081391	24.756429
796	1	24.394470	26.637693	2.016454
797	1	23.661070	8.626878	1.635081
798	1	14.453447	31.965198	12.328563
799	1	1.628218	18.111340	8.652463
800	1	12.929977	21.691207	17.375100
801	1	27.426229	15.761240	26.929718
802	1	23.506649	21.375827	8.935850
803	1	23.773807	31.878387	5.757259
804	1	19.956092	17.259355	4.228809
805	1	9.049232	18.314533	25.324536
806	1	31.808679	27.704376	1.262547
807	1	0.344295	5.242139	21.433827
808	1	2.868335	12.057400	13.358638
809	1	28.404211	14.368631	4.424697
810	1	15.338340	24.969680	5.513564
811	1	1.417758	8.155498	7.379693
812	1	26.461773	1.150239	23.143238
813	1	27.950299	30.895300	23.950614
814	1	13.203488	4.200558	8.230884
815	1	20.411233	16.316046	21.370782
816	1	30.068911	22.252675	12.025849
817	1	14.199024	7.483033	24.997068
818	1	8.659013	3.303781	9.291114
819	1	10.176366	13.570296	20.608946
820	1	6.476802	9.596218	19.827682
821	1	9.998424	20.286604	13.292673
822	1	16.275854	11.675460	13.578750
823	1	27.360311	16.701274	5.183135
824	1	28.809951	18.404440	6.257709
825	1	21.855273	31.418290	16.350571
826	1	10.481576	25.418791	22.293955
827	1	24.913604	15.483785	23.912352
828	1	31.955031	23.573737	26.098824
829	1	13.005905	11.156298	3.707698
830	1	25.359509	30.655618	23.718323
831	1	24.687792	29.144528	21.654953
832	1	15.558145	27.415450	20.729273
833	1	29.710520	1.098500	0.432453
834	1	25.414786	22.308678	1.797965
835	1	26.428845	14.014874	22.207544
836	1	13.270227	6.794790	19.747934
837	1	31.767764	1.684244	24.167341
838	1	30.966695	31.200876	31.012267
839	1	4.188185	1.045156	6.135099
840	1	15.755326	30.706540	1.773709
841	1	29.155962	26.172498	19.353047
842	1	17.109130	13.104720	18.490981
843	1	17.419868	28.212802	7.537753
844	1	6.690869	17.574619	8.641987
845	1	9.346607	12.897688	18.341882
846	1	30.673605	19.695267	22.324883
847	1	19.350981	18.779875	31.980240
848	1	8.666658	10.015836	28.442022
849	1	10.930189	18.749844	11.334613
850	1	27.323050	5.267533	29.977250
851	1	16.259448	9.699759	28.408198
852	1	9.297072	25.764244	28.788312
853	1	6.738462	2.831108	18.305967