ITEM: TIMESTEP
0
ITEM: NUMBER OF ATOMS
2000
ITEM: BOX BOUNDS pp pp pp
0.299875	32.130125
0.299875	32.130125
0.299875	32.130125
ITEM: ATOMS id type x y z
1	1	8.074957	21.769227	22.157205
2	1	25.708200	0.664707	28.739465
3	1	19.929296	11.651657	8.392417
4	1	16.145395	26.447572	11.920069
5	1	23.427989	19.820302	24.675425
6	1	3.813901	19.132995	21.336009
7	1	22.817939	23.682978	25.421986
8	1	9.604586	18.579202	18.012916
9	1	15.062274	17.001073	17.026218
10	1	21.790823	3.694657	31.140448
11	1	19.487901	18.765438	8.036927
12	1	6.580053	4.750994	31.822823
13	1	22.354933	11.945727	24.177089
14	1	4.063419	6.546522	5.492127
15	1	3.425915	30.680496	25.077400
16	1	26.007273	19.607082	24.079266
17	1	7.368243	26.499570	30.377118
18	1	15.535822	29.578207	6.344105
19	1	27.908780	18.324409	12.931225
20	1	2.978401	24.683233	8.588905
21	1	31.709732	15.295988	12.532535
22	1	23.592464	28.618796	13.463929
23	1	8.844417	29.348469	17.428477
24	1	20.574054	31.532196	18.507978
25	1	16.630989	29.352510	16.592335
26	1	23.220104	17.291279	28.146734
27	1	30.328927	28.663873	5.161278
28	1	24.369676	26.267598	14.219772
29	1	9.085180	29.009601	20.136769
30	1	17.981972	26.914093	16.294593
31	1	27.911484	3.003932	12.650337
32	1	25.704141	1.325984	31.269343
33	1	21.316099	3.777968	19.319597
34	1	26.181768	20.543463	3.527054
35	1	24.787390	13.029465	24.481663
36	1	5.869617	0.641748	1.559306
37	1	22.020914	18.873858	22.974711
38	1	18.125706	31.814589	1.108206
39	1	25.522571	17.538560	25.546863
40	1	23.658123	18.374529	17.702814
41	1	28.897890	0.591072	21.994622
42	1	17.272273	18.721950	6.749002
43	1	8.435379	26.566407	23.748284
44	1	24.270388	21.454044	14.884634
45	1	22.761852	16.154123	22.769831
46	1	16.251822	27.421956	4.865196
47	1	21.508840	19.220860	18.782508
48	1	16.961873	15.010032	16.483157
49	1	21.543244	9.550196	0.715890
50	1	25.095679	10.274930	2.887635
51	1	10.981820	28.205618	3.641677
52	1	1.378024	7.399699	19.429204
53	1	5.523920	8.376415	26.110787
54	1	5.935714	3.719102	9.687312
55	1	12.389663	16.373267	25.380315
56	1	26.269189	1.740200	20.673672
57	1	15.110784	14.355622	9.020825
58	1	18.773100	15.204654	23.596617
59	1	11.130812	22.349278	25.658377
60	1	21.071001	18.401014	2.204590
61	1	11.585252	17.610353	6.563490
62	1	9.157541	9.057947	15.069869
63	1	13.789266	28.233118	24.506638
64	1	5.138012	4.469039	19.382933
65	1	8.678734	13.287548	2.318972
66	1	24.591545	25.635898	8.751125
67	1	25.087960	6.504475	5.066877
68	1	30.055498	25.697279	8.416887
69	1	25.456009	31.154598	10.849813
70	1	19.065429	3.539359	11.351117
71	1	22.195350	25.472024	21.635837
72	1	4.608446	14.100404	1.196962
73	1	22.220317	2.373307	22.517268
74	1	2.300616	21.555476	14.364474
75	1	30.554254	2.869900	22.174722
76	1	24.007111	18.524624	6.743275
77	1	23.440988	8.457205	31.030869
78	1	23.081406	22.724786	16.938949
79	1	12.116742	24.427608	20.584671
80	1	1.020235	28.593358	15.425078
81	1	7.278644	19.566956	18.376975
82	1	0.800095	20.126117	30.329744
83	1	24.144868	11.271115	19.012473
84	1	10.551208	30.242537	10.974977
85	1	28.881932	30.617401	19.752661
86	1	13.035022	13.498208	2.985613
87	1	30.664319	6.966367	2.705026
88	1	23.373705	4.193480	1.722208
89	1	15.828867	17.659441	29.042872
90	1	14.425437	2.348117	4.653197
91	1	2.796471	3.247542	30.148477
92	1	0.809291	28.828602	20.053214
93	1	14.758146	15.679874	21.050570
94	1	7.922056	30.046279	11.016518
95	1	19.310488	14.647346	11.516442
96	1	1.267461	19.130012	11.083382
97	1	6.044006	18.606678	30.005105
98	1	10.064846	5.441826	9.989502
99	1	6.364944	30.070350	2.284422
100	1	19.480625	17.742666	13.057059
101	1	19.191498	11.822837	31.912854
102	1	21.310372	16.864149	31.956647
103	1	7.947903	18.976662	3.637779
104	1	7.080010	16.416303	26.140862
105	1	6.935576	25.069487	25.115750
106	1	20.021143	18.884594	21.425602
107	1	25.519794	4.126012	20.513963
108	1	22.549948	20.871275	13.179779
109	1	5.531675	23.473309	26.418976
110	1	4.843367	20.805028	12.011418
111	1	16.326987	3.393480	28.142889
112	1	13.504416	4.059505	24.792494
113	1	20.298834	1.578753	0.440368
114	1	19.994823	5.459324	30.407712
115	1	7.153293	11.851362	29.950613
116	1	10.612597	17.252362	23.638402
117	1	6.573447	7.807273	8.862567
118	1	20.830842	17.179924	27.165995
119	1	5.254564	29.330256	7.691146
120	1	30.284303	20.251577	7.217813
121	1	20.219882	8.706474	13.032668
122	1	23.316453	30.344538	3.510644
123	1	1.211529	15.616254	8.380365
124	1	2.964771	29.460281	8.404209
125	1	8.305206	16.208931	23.834953
126	1	1.021782	4.759248	31.486401
127	1	9.629180	4.544878	22.396467
128	1	0.633370	8.693518	3.174667
129	1	3.265363	0.430348	29.982405
130	1	23.573991	4.580926	18.791994
131	1	28.760563	5.328179	6.611796
132	1	19.528096	29.515227	19.570982
133	1	31.936232	4.604725	9.436006
134	1	3.651694	11.227359	10.818101
135	1	17.346362	5.165257	26.331752
136	1	2.158911	3.556531	15.318085
137	1	6.932908	15.773909	12.001320
138	1	12.071026	9.863954	31.655880
139	1	13.954396	0.724232	22.234320
140	1	26.797715	12.607069	9.403315
141	1	16.605780	4.640129	0.498933
142	1	31.997475	7.747719	15.165077
143	1	1.874160	26.532628	16.692791
144	1	27.442921	9.680088	2.958056
145	1	9.403983	24.116129	2.608027
146	1	6.684403	27.409038	2.843902
147	1	13.800915	18.279802	20.754691
148	1	6.216339	13.859729	9.939583
149	1	16.237231	6.110253	13.325620
150	1	16.745003	29.734710	27.102392
151	1	27.950332	7.584861	13.616543
152	1	7.469461	8.896983	13.252896
153	1	21.123524	11.056986	30.564307
154	1	29.042384	29.720255	22.000818
155	1	24.639159	15.562245	12.843748
156	1	6.513982	21.441325	16.642962
157	1	8.829587	26.180102	26.235199
158	1	21.109618	5.746120	3.030203
159	1	28.280944	12.855680	32.057917
160	1	27.889300	16.237718	2.725015
161	1	31.801642	18.703412	16.838162
162	1	31.455495	1.496466	4.397323
163	1	28.021309	21.137982	12.412288
164	1	10.339341	29.570341	15.334465
165	1	3.658021	23.232383	30.726341
166	1	4.331965	28.694521	2.093531
167	1	22.089725	9.893474	11.664469
168	1	19.181049	4.589980	18.000298
169	1	11.973385	17.898842	17.447284
170	1	6.360656	26.072631	16.523637
171	1	27.982730	29.758046	31.252082
172	1	14.342165	11.550880	11.861528
173	1	8.423416	15.247425	14.039732
174	1	3.123786	24.855584	3.201775
175	1	8.994320	5.891083	25.344834
176	1	27.073235	24.266105	23.083704
177	1	14.414133	15.359466	28.647007
178	1	21.940440	15.793336	29.745669
179	1	25.402326	11.305405	14.496440
180	1	21.814484	24.665693	4.971118
181	1	25.846657	7.691938	2.969874
182	1	16.314994	10.962300	6.429025
183	1	29.661894	25.228935	1.371540
184	1	23.112623	10.656498	29.099046
185	1	20.362759	26.606381	22.778421
186	1	4.256627	12.923003	3.347238
187	1	4.289392	16.452779	26.242596
188	1	5.851646	12.870748	24.577714
189	1	2.368746	27.264057	2.356003
190	1	9.314933	6.047785	27.857766
191	1	12.982278	7.608234	6.262307
192	1	26.850648	16.576996	20.136925
193	1	9.869716	10.265697	7.685786
194	1	17.568463	7.205978	16.284796
195	1	17.089223	14.556998	5.460636
196	1	31.248144	10.847769	4.193566
197	1	14.928100	30.847725	28.754859
198	1	26.716195	2.843727	29.501356
199	1	19.289406	9.159723	18.749147
200	1	24.458980	17.964874	23.053506
201	1	12.210866	15.606639	27.707888
202	1	16.323560	25.259950	29.473571
203	1	26.660185	31.905800	16.428412
204	1	17.988199	29.582207	9.690669
205	1	9.201211	0.306865	30.507141
206	1	16.340230	1.692553	8.699334
207	1	30.712815	0.603269	28.754888
208	1	17.579521	15.340976	9.496093
209	1	5.847929	11.927922	16.193797
210	1	21.483817	11.999899	15.533306
211	1	28.734569	25.952621	10.704223
212	1	23.755453	15.587251	3.757653
213	1	9.075668	17.687617	7.625147
214	1	14.120995	23.787010	3.521025
215	1	1.860060	26.767568	19.310372
216	1	10.572355	25.168919	17.685357
217	1	16.685223	22.269618	11.054478
218	1	17.803684	3.417990	9.329675
219	1	17.692592	11.024416	17.569153
220	1	6.524625	18.242348	25.049491
221	1	19.801912	21.918406	21.062743
222	1	17.063554	27.487091	30.735775
223	1	29.396806	8.217903	11.504310
224	1	29.541794	21.370929	3.056286
225	1	25.140493	25.927366	29.479048
226	1	7.178908	26.105415	9.565990
227	1	17.439999	31.663037	15.402755
228	1	7.005013	20.620714	31.588530
229	1	15.071921	3.058409	17.661021
230	1	1.654212	13.745168	12.220291
231	1	8.203770	30.562274	4.814210
232	1	31.892885	12.722709	2.469018
233	1	2.927315	0.604994	0.983879
234	1	6.519036	1.351713	16.235989
235	1	15.205947	3.046757	23.040211
236	1	13.384426	17.753718	8.204877
237	1	17.950930	31.544663	17.979748
238	1	2.916115	15.678161	24.012216
239	1	6.170785	7.706452	6.520098
240	1	1.487735	22.615912	18.657689
241	1	19.152005	21.921780	10.708588
242	1	18.777444	21.764663	27.849695
243	1	14.105544	9.330331	10.371518
244	1	2.442782	11.565815	22.290341
245	1	31.203894	1.305749	12.953983
246	1	7.945286	24.486717	7.626014
247	1	14.655881	15.092004	15.407816
248	1	10.521461	13.269511	11.661388
249	1	25.808209	23.598857	29.441868
250	1	24.900147	16.094050	21.438797
251	1	12.808795	10.822715	17.285119
252	1	14.847041	15.786261	12.908409
253	1	21.466952	9.685344	4.914102
254	1	10.709650	9.089093	17.350910
255	1	2.647454	5.087132	22.706701
256	1	12.876280	25.284957	5.473725
257	1	14.024670	25.658921	15.465997
258	1	21.005867	25.952190	31.202353
259	1	4.437246	27.985128	15.763728
260	1	6.127211	29.858341	24.517499
261	1	9.689932	29.689918	31.524786
262	1	10.458308	13.811713	28.143136
263	1	21.768556	21.269727	10.719231
264	1	9.974024	8.165375	3.027195
265	1	5.529397	24.586463	8.245745
266	1	2.035968	16.263779	30.559717
267	1	2.221289	22.868469	2.099697
268	1	29.810516	5.559021	22.371620
269	1	5.139291	12.008669	28.220785
270	1	5.632118	14.350367	17.271368
271	1	12.588916	20.448324	20.745869
272	1	16.788799	9.863690	15.333666
273	1	11.813643	5.222746	28.521079
274	1	9.777246	20.272051	26.923811
275	1	4.205010	0.950878	15.333359
276	1	25.995310	4.583351	13.743764
277	1	24.926174	25.270133	24.795348
278	1	2.390074	17.597989	17.203845
279	1	27.385714	29.729140	15.773977
280	1	7.757939	10.228639	11.149026
281	1	8.673593	12.037865	32.069356
282	1	26.584470	18.979956	21.559687
283	1	27.320881	14.971631	9.958294
284	1	18.338369	25.358778	23.304338
285	1	19.660654	7.034048	17.158658
286	1	2.310804	3.089013	1.136829
287	1	30.941111	1.830629	6.850120
288	1	29.494283	14.870946	11.176925
289	1	29.647800	2.652319	14.592222
290	1	6.997404	1.923023	22.503171
291	1	5.877254	2.527710	5.542056
292	1	6.244418	31.455386	6.441591
293	1	1.714344	2.541764	3.626190
294	1	29.839212	9.223834	2.823787
295	1	9.938282	12.737169	24.951533
296	1	23.230170	14.380022	31.860413
297	1	17.428827	14.433128	25.915634
298	1	18.895568	8.707499	26.967304
299	1	18.544443	7.624199	9.173321
300	1	13.318227	27.410327	1.126454
301	1	6.137813	2.102418	25.752082
302	1	4.925040	4.206147	26.494720
303	1	8.116276	15.298872	27.980738
304	1	8.010776	6.203517	6.088134
305	1	2.645723	15.991769	1.129385
306	1	4.006114	25.177353	15.794431
307	1	1.164403	23.954126	4.623812
308	1	10.873543	18.628931	31.542191
309	1	1.233309	11.900984	0.355695
310	1	3.036668	25.378925	23.473330
311	1	27.597164	11.303820	7.107842
312	1	2.274021	15.717912	13.527783
313	1	10.682491	30.784269	3.785806
314	1	17.557887	29.593615	31.928937
315	1	21.836342	11.406584	6.600825
316	1	13.658692	11.180518	6.595437
317	1	4.371944	31.394162	12.982104
318	1	14.655144	11.914814	18.843085
319	1	13.099635	19.203049	10.154728
320	1	23.181654	31.864680	18.609662
321	1	26.949583	21.571632	22.549038
322	1	29.223076	16.558376	19.342327
323	1	29.007070	4.515248	24.547971
324	1	12.890955	29.322230	28.684053
325	1	12.044966	1.647083	20.207460
326	1	1.314735	6.811057	9.711958
327	1	12.122156	8.965606	24.834508
328	1	28.565704	27.737610	8.593551
329	1	19.294213	14.909673	4.176376
330	1	29.149008	8.643831	17.954860
331	1	7.179858	23.122541	3.450857
332	1	4.661238	10.319874	3.162685
333	1	10.906087	17.855390	27.185583
334	1	1.848743	30.173680	21.766983
335	1	7.544430	28.691407	22.682363
336	1	29.018495	15.565812	6.510261
337	1	12.365818	2.653631	29.685013
338	1	20.636815	11.301817	22.297521
339	1	7.675888	29.234943	6.861013
340	1	25.873859	24.543417	10.753096
341	1	10.931470	14.105230	9.336250
342	1	24.379768	1.364091	10.089589
343	1	29.440744	0.608431	2.987514
344	1	17.491162	17.917114	9.345444
345	1	11.447197	20.571939	1.630522
346	1	7.436138	16.486195	30.211047
347	1	27.440416	20.108520	27.728499
348	1	28.338702	16.618036	14.960561
349	1	7.022890	2.871395	29.895603
350	1	16.888728	31.701281	12.745591
351	1	22.630337	7.887607	21.526889
352	1	1.861399	30.749682	31.310581
353	1	8.163142	16.058631	2.517137
354	1	22.494814	10.309012	26.443750
355	1	17.881452	2.294920	0.486607
356	1	20.914848	13.434177	13.493820
357	1	17.731684	8.629398	2.062975
358	1	21.629282	12.315516	1.272774
359	1	15.989405	29.774349	24.632742
360	1	2.845035	3.989036	27.657020
361	1	10.671451	26.544026	5.370867
362	1	25.431618	2.567228	27.195821
363	1	24.630113	9.857526	12.317627
364	1	17.345149	25.687370	25.589784
365	1	27.796986	25.246341	3.888742
366	1	28.776541	10.198393	4.991600
367	1	28.394489	19.605373	23.274571
368	1	27.597347	20.565941	1.290287
369	1	2.504539	1.997741	19.466552
370	1	27.652689	3.415942	19.081067
371	1	25.170777	24.428133	27.008994
372	1	6.468159	9.514151	15.543539
373	1	29.204920	0.640949	5.528025
374	1	25.654927	24.654536	0.408847
375	1	19.297295	16.340061	30.584098
376	1	27.969531	1.527658	27.583188
377	1	5.720111	18.741364	13.771407
378	1	7.306488	2.404121	11.377227
379	1	3.115520	0.440309	21.380015
380	1	11.799511	4.906211	30.957416
381	1	16.839845	27.200026	9.728879
382	1	5.683175	15.196089	7.881838
383	1	3.358120	28.769057	19.986286
384	1	20.597564	6.527810	22.185302
385	1	30.650100	24.226999	21.032800
386	1	25.633051	28.793235	11.732607
387	1	15.198283	5.197933	19.356358
388	1	22.587668	25.929248	24.060303
389	1	6.800945	30.359810	13.059199
390	1	29.336511	4.865332	9.052973
391	1	18.074263	23.185517	8.736044
392	1	21.277665	8.049052	26.170225
393	1	14.028620	25.672930	19.875278
394	1	26.336714	25.319204	15.177568
395	1	16.727100	1.289470	19.085318
396	1	21.099348	5.066553	11.605270
397	1	4.174647	27.346050	11.887508
398	1	6.466417	3.919140	16.007813
399	1	20.728863	4.610026	25.695798
400	1	21.099527	29.255383	12.763674
401	1	23.043481	11.738690	13.036908
402	1	29.887588	29.925341	12.356394
403	1	18.273381	12.563672	10.052075
404	1	13.707958	3.031590	15.559488
405	1	21.716005	28.412477	7.704534
406	1	16.037090	16.435613	1.772887
407	1	3.610482	13.858167	25.647980
408	1	17.372575	3.911421	13.131273
409	1	26.853575	11.150128	30.818053
410	1	9.414601	4.683574	32.010127
411	1	8.300924	17.589741	19.908399
412	1	4.515786	16.811400	12.601791
413	1	16.445883	2.789421	30.457680
414	1	10.620932	23.924798	4.863799
415	1	0.655524	15.441097	2.757637
416	1	20.959826	25.700879	11.122757
417	1	24.077653	11.887006	16.503977
418	1	7.850699	19.791863	8.645568
419	1	15.324727	7.512291	18.371676
420	1	22.819073	14.409473	24.816527
421	1	14.669418	25.130264	1.505976
422	1	9.693532	31.148279	26.710691
423	1	24.641390	14.485705	17.121858
424	1	31.356104	7.403476	17.470585
425	1	28.129278	28.395573	11.023060
426	1	23.905725	30.525929	25.692448
427	1	27.671334	12.228905	14.170607
428	1	22.969821	28.542400	26.796843
429	1	18.660464	13.123096	29.715522
430	1	30.545685	16.659530	1.638065
431	1	30.721288	19.478645	4.874749
432	1	31.778725	21.979398	8.321520
433	1	23.718168	31.909916	30.063772
434	1	21.696452	15.005361	10.351515
435	1	5.032554	13.028065	30.837119
436	1	29.381882	24.774189	24.426115
437	1	30.523890	12.386814	0.331067
438	1	15.246248	19.107090	8.501909
439	1	25.327838	9.373108	19.880304
440	1	11.631472	5.715335	21.286945
441	1	30.335659	9.648529	29.595011
442	1	24.954248	16.399487	6.045386
443	1	4.463789	25.901185	25.775001
444	1	31.079209	17.959410	26.309436
445	1	31.637152	19.619286	9.111500
446	1	13.621036	24.559278	7.877371
447	1	22.230471	19.346054	31.995549
448	1	19.680576	1.949276	22.302501
449	1	25.427370	23.229962	16.074543
450	1	5.136691	4.378126	12.045211
451	1	2.509608	19.613725	15.906876
452	1	23.527416	20.721607	19.182959
453	1	23.979109	19.695415	11.046006
454	1	12.350838	14.807285	30.083880
455	1	30.437873	2.598599	9.156998
456	1	12.741596	4.183605	19.432713
457	1	13.833267	8.320467	0.676005
458	1	8.361309	6.468333	3.432185
459	1	11.159898	17.907824	13.606887
460	1	32.012831	21.422029	10.825026
461	1	15.918909	31.749666	20.850013
462	1	11.844317	22.538220	3.413742
463	1	2.812051	24.619336	18.114026
464	1	29.539464	20.304793	16.928621
465	1	26.057286	27.264253	7.296662
466	1	12.768980	17.657400	30.072178
467	1	4.548676	29.737126	17.803732
468	1	2.725984	4.856548	25.174763
469	1	19.623703	19.425320	27.376576
470	1	15.363162	4.111414	9.551114
471	1	28.712200	7.432337	9.206149
472	1	27.106753	10.079055	18.276581
473	1	2.415227	5.756048	29.490448
474	1	27.445274	22.473535	7.816481
475	1	17.710652	11.059614	22.409397
476	1	29.542425	30.270188	9.798261
477	1	3.438663	12.082092	5.536764
478	1	20.532183	25.933555	28.547850
479	1	9.132029	21.278910	17.894065
480	1	17.384473	25.737671	19.248661
481	1	14.765254	10.576163	22.159039
482	1	13.160870	3.587541	2.893615
483	1	29.838474	16.795044	12.860524
484	1	24.340522	7.619258	7.208520
485	1	32.006023	28.439200	12.906425
486	1	16.822577	19.925772	18.483038
487	1	6.972799	21.440818	10.599113
488	1	4.979697	23.934367	24.015454
489	1	30.974731	23.163822	1.767923
490	1	28.488366	17.129660	10.718942
491	1	10.739210	12.588858	4.118269
492	1	2.585653	19.951718	28.404299
493	1	4.103530	26.532914	20.790536
494	1	23.340416	8.429435	19.093177
495	1	6.912414	30.839953	8.847749
496	1	5.224399	10.544694	30.828294
497	1	9.649945	2.359138	2.738170
498	1	12.496694	9.823098	12.407419
499	1	10.789938	22.253231	14.371183
500	1	11.999271	23.122683	12.664087
501	1	20.980828	31.863502	12.244991
502	1	4.185500	3.223565	21.513625
503	1	17.422703	16.498038	11.904541
504	1	11.341642	15.004115	5.105132
505	1	29.544776	15.893245	8.740753
506	1	0.324255	13.057269	7.762310
507	1	10.322588	27.358668	16.338465
508	1	2.058840	25.145255	29.960111
509	1	5.780413	18.096221	22.530616
510	1	20.096891	11.537538	17.614338
511	1	4.217640	23.146707	19.560016
512	1	19.542294	6.227039	6.690417
513	1	14.524858	6.671094	11.479090
514	1	16.531902	5.287653	17.349216
515	1	23.570378	19.747085	2.460600
516	1	12.150895	12.192514	13.347639
517	1	26.750198	22.313360	31.449873
518	1	5.446693	31.733824	26.288144
519	1	30.479830	8.408081	32.102860
520	1	20.807451	4.209922	23.363173
521	1	7.078949	20.531137	26.221708
522	1	27.829731	21.809032	18.272149
523	1	3.350593	9.297805	22.956771
524	1	15.383806	6.596919	31.130163
525	1	3.851099	9.748302	27.680538
526	1	23.225029	9.467703	6.839981
527	1	31.581035	26.515544	20.790735
528	1	23.924802	2.557796	29.517993
529	1	17.190926	3.681478	19.210738
530	1	28.772694	5.162166	2.638722
531	1	28.889396	28.061885	27.033418
532	1	2.324139	13.590840	1.873508
533	1	26.291083	9.167147	8.311087
534	1	3.201021	31.530247	27.435975
535	1	6.069566	23.409488	15.089215
536	1	26.947533	28.535047	23.060240
537	1	19.856957	7.560065	1.453664
538	1	23.544775	27.754203	16.051751
539	1	17.277055	10.029462	4.156294
540	1	31.831943	8.738594	25.669535
541	1	3.660615	28.128401	24.657081
542	1	29.480889	7.409729	15.642680
543	1	15.080969	20.345448	28.751259
544	1	24.193010	22.933907	31.237847
545	1	27.443108	19.364520	10.495058
546	1	2.742708	21.146670	-1.137643
547	1	2.654051	22.951556	22.988645
548	1	25.222637	18.654322	19.590983
549	1	21.022526	12.027941	28.251253
550	1	16.340498	24.798254	16.023164
551	1	8.563969	18.717503	30.660547
552	1	26.277652	21.100637	20.055398
553	1	5.642730	13.937872	21.475931
554	1	6.662626	7.956529	17.817280
555	1	6.929699	2.479670	3.141173
556	1	29.738674	19.637810	28.012136
557	1	6.303714	9.010534	23.929903
558	1	2.695041	8.553282	25.711790
559	1	10.028929	31.506912	17.065742
560	1	20.365441	14.443204	19.903095
561	1	25.652400	31.011276	3.988614
562	1	4.936482	30.806480	19.981944
563	1	1.914471	26.578958	4.899838
564	1	27.309911	29.048067	6.282568
565	1	13.439248	15.959877	2.103254
566	1	9.224964	26.589423	2.597171
567	1	31.029520	13.826833	4.409345
568	1	12.223013	30.241683	13.266102
569	1	5.917239	27.939112	32.142505
570	1	24.966875	10.071635	27.260552
571	1	30.937707	21.537247	29.473694
572	1	29.388169	17.633758	17.016178
573	1	22.626886	15.121449	20.415443
574	1	10.657991	0.969814	28.631401
575	1	29.516767	26.336189	16.918329
576	1	22.635990	20.329727	16.649892
577	1	13.069688	20.117134	7.136185
578	1	17.442702	25.454523	8.087914
579	1	27.990889	2.947338	10.127512
580	1	2.874129	31.504369	10.841067
581	1	21.624333	18.717935	11.792715
582	1	15.432622	1.220969	6.507966
583	1	25.168389	23.345506	8.489446
584	1	27.602300	21.069646	25.177203
585	1	1.234786	2.920430	7.977386
586	1	0.840607	5.261518	11.708680
587	1	29.593521	27.299649	12.827485
588	1	6.265552	6.567661	12.642249
589	1	14.156842	2.369377	31.586806
590	1	4.742495	20.994786	14.559431
591	1	31.122777	3.210437	32.099954
592	1	20.061356	10.699381	26.221810
593	1	30.583785	5.756072	4.921499
594	1	21.872005	0.703007	9.950098
595	1	0.963880	3.207646	26.201687
596	1	3.782093	11.669180	0.911067
597	1	3.827551	14.823913	9.205267
598	1	26.234105	25.712606	19.460931
599	1	7.368410	30.163223	26.996464
600	1	23.031481	21.821504	1.446542
601	1	17.976643	6.458894	22.220229
602	1	4.263879	16.185948	21.786481
603	1	20.001518	3.078673	16.071537
604	1	2.487253	8.979737	10.224875
605	1	27.378241	15.625211	12.536780
606	1	14.768976	13.465183	30.616854
607	1	10.242446	4.170169	26.665035
608	1	26.450740	18.980723	5.724897
609	1	9.648527	9.638315	0.898064
610	1	25.572166	8.815196	14.333707
611	1	6.349730	32.012837	10.967968
612	1	23.315452	17.439468	1.717786
613	1	22.370437	12.615321	20.647884
614	1	21.651907	29.048571	15.264186
615	1	13.196083	16.639197	19.073847
616	1	11.956559	31.482890	21.996700
617	1	30.143675	12.971705	24.813589
618	1	23.853890	11.199430	4.947755
619	1	17.798551	22.720907	15.276056
620	1	22.318901	6.443755	8.421945
621	1	4.571307	31.711837	8.680177
622	1	20.343624	4.023985	13.677986
623	1	21.484591	15.389278	5.206151
624	1	5.961536	6.410327	1.980792
625	1	2.575273	17.519319	5.949049
626	1	26.231380	13.499987	27.342091
627	1	8.175078	22.533839	1.071740
628	1	23.724564	25.532153	4.051730
629	1	24.205428	19.967170	4.730740
630	1	31.212804	11.747714	9.621084
631	1	30.911564	16.029534	15.299447
632	1	28.676570	8.714682	6.971266
633	1	21.204643	21.105523	28.516791
634	1	17.759559	10.356305	8.435748
635	1	12.189088	15.184396	20.794679
636	1	20.477580	15.137561	25.453931
637	1	14.972724	9.202043	7.770222
638	1	7.012528	28.348658	9.192687
639	1	18.052713	6.073553	2.595502
640	1	24.578686	16.973348	8.607231
641	1	6.420333	0.530296	30.558851
642	1	10.527015	8.193332	13.021283
643	1	8.770248	31.519716	7.219583
644	1	8.119762	11.734705	20.538298
645	1	14.266976	11.639815	26.358757
646	1	22.523068	21.693769	23.320659
647	1	14.254500	22.552296	11.860564
648	1	2.098080	18.379004	26.594826
649	1	5.717336	16.488932	28.321617
650	1	27.063358	6.023767	0.543368
651	1	23.732004	8.656276	4.342116
652	1	4.431661	16.293569	17.315771
653	1	21.965928	29.252020	17.828060
654	1	22.332082	19.340762	27.116796
655	1	16.389914	21.350275	24.601730
656	1	4.592248	23.778167	1.377421
657	1	25.997997	17.296288	14.148792
658	1	16.633754	14.151408	14.101764
659	1	1.617572	11.812461	16.392814
660	1	26.647407	4.413664	5.593945
661	1	31.045962	14.305276	22.727049
662	1	3.552873	30.579668	6.130974
663	1	16.226520	16.684430	26.784208
664	1	18.122977	26.463635	5.975626
665	1	1.604974	20.348593	1.095117
666	1	3.857308	13.420566	23.147909
667	1	1.739411	1.586813	5.891873
668	1	9.666412	30.395529	22.518330
669	1	11.406277	22.378290	19.315094
670	1	9.842094	13.313806	14.004330
671	1	17.137518	29.754560	29.534127
672	1	29.343617	12.410457	16.052143
673	1	26.831334	0.753065	9.347951
674	1	27.769668	5.794707	20.343820
675	1	21.786879	23.675054	32.102501
676	1	14.031162	28.390275	12.651050
677	1	5.361200	30.964061	28.817907
678	1	15.010844	18.821765	30.872506
679	1	26.658548	7.588933	18.323937
680	1	14.642976	17.634752	25.056451
681	1	8.864417	8.345812	19.206356
682	1	2.880030	29.079019	4.151166
683	1	30.439813	5.077634	26.726261
684	1	3.533544	17.058661	15.050831
685	1	17.295633	29.793975	22.336686
686	1	8.777518	0.326155	12.518167
687	1	31.960333	1.039945	18.488244
688	1	21.301900	23.243836	2.870106
689	1	18.523089	12.562154	12.564298
690	1	13.239052	0.757839	14.569717
691	1	30.715742	6.434815	10.573323
692	1	24.165434	22.066911	12.097219
693	1	31.488323	13.480599	17.214699
694	1	15.320970	31.832782	26.242676
695	1	10.793509	22.779994	16.786636
696	1	5.781096	30.659410	15.537112
697	1	0.370830	17.706659	12.777045
698	1	22.854999	30.102026	23.309547
699	1	9.227409	29.718475	8.842918
700	1	6.560694	20.149148	23.667411
701	1	27.595273	30.718476	11.626704
702	1	12.385254	17.120744	4.057700
703	1	21.446176	4.184137	6.986728
704	1	30.030624	17.706582	23.604798
705	1	16.765905	10.939878	11.235976
706	1	22.765918	30.972531	14.023949
707	1	25.259786	27.084015	27.036113
708	1	3.293669	29.604122	29.291195
709	1	1.206422	19.294536	21.353986
710	1	5.855800	14.288364	26.784031
711	1	3.886621	24.347539	28.149763
712	1	20.021140	30.932304	14.389979
713	1	3.880509	2.473267	8.230190
714	1	0.494999	21.696391	24.327408
715	1	1.635605	23.134016	9.772817
716	1	5.279153	28.187679	29.705576
717	1	23.697778	25.497582	19.797215
718	1	5.541141	6.100717	10.193522
719	1	21.721316	20.701518	3.758890
720	1	6.767341	21.091398	5.041339
721	1	18.275588	24.440489	27.829521
722	1	9.930664	15.362223	7.184574
723	1	4.949464	16.682608	5.913736
724	1	18.467317	21.349230	17.211565
725	1	2.551582	7.937156	14.606302
726	1	21.255120	24.330627	15.833754
727	1	7.733683	31.040526	0.485269
728	1	14.266770	29.486698	26.569584
729	1	31.164146	30.535149	19.103353
730	1	30.204867	9.035593	13.810934
731	1	28.857543	18.089740	21.274214
732	1	1.509223	15.482389	15.946889
733	1	24.730975	2.878417	22.569017
734	1	6.698478	27.837628	11.854007
735	1	22.259318	10.354303	17.238181
736	1	26.608112	1.149597	11.943684
737	1	26.780476	8.299332	10.698226
738	1	11.947203	22.128207	8.328397
739	1	26.002025	10.651148	10.396150
740	1	16.948571	2.735253	4.715446
741	1	11.767719	16.340012	32.025345
742	1	25.044193	5.281311	23.012882
743	1	31.415042	29.067089	26.692821
744	1	4.907112	5.743458	21.536274
745	1	7.448284	15.984450	6.592145
746	1	19.920798	17.096996	15.746392
747	1	27.917021	13.917119	19.727823
748	1	15.531345	20.854862	6.616787
749	1	8.516680	22.693743	6.006125
750	1	10.115952	11.807820	22.430011
751	1	12.052586	29.529989	31.527601
752	1	16.436369	7.531659	3.967335
753	1	27.210854	26.239347	1.611494
754	1	11.031037	4.194427	17.266477
755	1	28.891728	0.467799	8.243947
756	1	21.719027	27.889693	10.726419
757	1	0.496512	3.806965	5.376918
758	1	18.728081	12.699637	27.156426
759	1	6.021197	22.857561	31.481750
760	1	12.169806	24.813095	24.507121
761	1	2.636413	20.623345	23.194840
762	1	3.669703	18.116700	1.501816
763	1	28.288598	26.835129	14.924788
764	1	10.112565	27.321039	13.712799
765	1	30.199856	11.460134	13.850205
766	1	27.197262	13.830820	2.177935
767	1	11.674238	29.288453	20.944149
768	1	12.589273	30.808567	16.118226
769	1	15.404822	21.285743	31.280553
770	1	10.958685	4.740673	24.281189
771	1	14.716552	26.522908	31.143665
772	1	28.378453	7.699925	1.547266
773	1	31.241897	0.304060	8.840909
774	1	6.618506	22.057031	7.941876
775	1	31.434616	22.122781	5.816553
776	1	29.844841	2.864130	2.235748
777	1	25.171618	12.109328	29.277383
778	1	8.468252	23.540859	14.270989
779	1	17.683977	29.559772	14.143220
780	1	12.612052	25.215929	31.943361
781	1	21.259561	14.773698	15.638313
782	1	19.071945	-0.388291	23.550583
783	1	1.248419	3.379113	17.652731
784	1	17.642781	3.737378	2.636511
785	1	15.758127	4.489811	15.237393
786	1	10.080109	27.882296	22.424416
787	1	10.966010	26.935520	24.763762
788	1	26.318202	27.090341	9.934615
789	1	12.993324	13.078865	15.825600
790	1	17.123011	17.250997	31.310623
791	1	17.258254	8.736731	17.627374
792	1	26.530415	11.554207	1.504506
793	1	5.625541	25.008238	3.725360
794	1	23.112449	27.974813	3.920589
795	1	21.523269	28.050176	24.714111
796	1	24.400047	26.639790	2.014948
797	1	23.675510	8.624680	1.661709
798	1	14.408833	32.017620	12.306664
799	1	1.644231	18.074371	8.675234
800	1	12.906633	21.684205	17.337553
801	1	27.397442	15.769323	26.878927
802	1	23.527346	21.337391	8.884832
803	1	23.724555	31.884058	5.757411
804	1	19.973342	17.256321	4.229502
805	1	9.033913	18.313854	25.344899
806	1	31.821266	27.696210	1.232980
807	1	0.324349	5.242274	21.454327
808	1	2.881599	12.021560	13.366038
809	1	28.432618	14.360814	4.388164
810	1	15.330073	24.971557	5.517493
811	1	1.307447	8.175440	7.411136
812	1	26.415608	1.155716	23.167793
813	1	27.929537	30.899516	23.961650
814	1	13.171468	4.229807	8.194376
815	1	20.426053	16.374627	21.460100
816	1	30.056284	22.257595	12.022203
817	1	14.134879	7.479307	25.009776
818	1	8.625312	3.348911	9.297804
819	1	10.204202	13.573078	20.611611
820	1	6.487723	9.593030	19.841443
821	1	9.968999	20.248011	13.309786
822	1	16.308215	11.685271	13.605410
823	1	27.414741	16.682143	5.178593
824	1	28.864794	18.382052	6.238602
825	1	21.862651	31.355627	16.346611
826	1	10.488592	25.411366	22.327890
827	1	24.928614	15.502366	23.907780
828	1	31.907730	23.564625	26.126076
829	1	13.054954	11.158780	3.687560
830	1	25.333631	30.655065	23.722581
831	1	24.699071	29.158456	21.633164
832	1	15.546322	27.413621	20.723582
833	1	29.708907	1.108988	0.450052
834	1	25.432289	22.320872	1.784986
835	1	26.426695	14.011616	22.199769
836	1	13.302387	6.790586	19.693207
837	1	31.733445	1.689470	24.167626
838	1	30.972790	31.243691	31.032609
839	1	4.155307	1.048010	6.125371
840	1	15.763176	30.712016	1.780276
841	1	29.098155	26.146707	19.358407
842	1	17.079164	13.211274	18.582447
843	1	17.404303	28.243660	7.513596
844	1	6.699543	17.552656	8.638664
845	1	9.362054	12.882269	18.353644
846	1	30.679796	19.692695	22.302197
847	1	19.373854	18.811315	31.983793
848	1	8.690655	10.017620	28.419975
849	1	10.926056	18.739238	11.339084
850	1	27.323554	5.280519	29.985318
851	1	16.272463	9.701593	28.397398
852	1	9.268887	25.746560	28.777947
853	1	6.724299	2.784695	18.303721