ITEM: TIMESTEP
0
ITEM: NUMBER OF ATOMS
2000
ITEM: BOX BOUNDS pp pp pp
0.299875	32.130125
0.299875	32.130125
0.299875	32.130125
ITEM: ATOMS id type x y z
1	1	8.062563	21.765472	22.154449
2	1	25.704579	0.659817	28.741337
3	1	19.934784	11.683315	8.362455
4	1	16.152740	26.455649	11.941393
5	1	23.418246	19.803686	24.694504
6	1	3.789430	19.137586	21.329573
7	1	22.803701	23.681587	25.449236
8	1	9.600137	18.571018	18.017047
9	1	15.050856	16.965605	17.027376
10	1	21.802767	3.696773	31.142470
11	1	19.490791	18.780637	8.065259
12	1	6.593344	4.742316	31.811398
13	1	22.347030	11.919655	24.168846
14	1	4.091964	6.551219	5.480566
15	1	3.419650	30.675746	25.071839
16	1	25.984025	19.585373	24.111826
17	1	7.364256	26.495019	30.375694
18	1	15.530583	29.555195	6.346446
19	1	27.909436	18.355294	12.934696
20	1	2.986172	24.689422	8.579976
21	1	31.707603	15.312633	12.531096
22	1	23.581954	28.694251	13.499051
23	1	8.847732	29.333995	17.439557
24	1	20.569469	31.552729	18.511377
25	1	16.651082	29.362595	16.609883
26	1	23.218291	17.280795	28.130996
27	1	30.339591	28.678249	5.150903
28	1	25.089803	25.829561	14.641861
29	1	9.072355	29.000446	20.141795
30	1	18.004637	26.908506	16.328488
31	1	27.882123	3.051466	12.625136
32	1	25.701156	1.325376	31.276175
33	1	21.312093	3.776604	19.341837
34	1	26.160392	20.544887	3.533726
35	1	24.785053	13.011370	24.472590
36	1	5.876536	0.647450	1.560198
37	1	22.017026	18.888355	22.979173
38	1	18.129577	31.818606	1.155016
39	1	25.470245	17.545635	25.564986
40	1	23.680814	18.389677	17.683489
41	1	28.884408	0.587722	21.982804
42	1	17.273188	18.724845	6.763528
43	1	8.427880	26.560166	23.746494
44	1	24.485007	21.598137	14.910168
45	1	22.734752	16.128693	22.763887
46	1	16.253194	27.405382	4.868188
47	1	21.556390	19.208982	18.703557
48	1	16.976167	14.954606	16.461690
49	1	21.547453	9.558144	0.701645
50	1	25.098707	10.283704	2.874706
51	1	10.974971	28.209608	3.652235
52	1	1.371188	7.391763	19.419643
53	1	5.531796	8.379144	26.105457
54	1	5.945561	3.726759	9.689016
55	1	12.375710	16.367614	25.376766
56	1	26.278706	1.728676	20.644454
57	1	15.123910	14.338806	9.025038
58	1	18.761152	15.172703	23.580326
59	1	11.118874	22.343277	25.663372
60	1	21.067403	18.389926	2.207047
61	1	11.596747	17.604903	6.568688
62	1	9.132860	9.064910	15.082851
63	1	13.776062	28.224772	24.515832
64	1	5.131507	4.475030	19.368023
65	1	8.672986	13.248531	2.351601
66	1	24.593921	25.663285	8.807968
67	1	25.087363	6.516315	5.056768
68	1	30.080874	25.721578	8.375453
69	1	25.467131	31.168135	10.854078
70	1	19.050413	3.529383	11.361511
71	1	22.145683	25.471149	21.676466
72	1	4.609470	14.101850	1.204647
73	1	22.228750	2.368071	22.518372
74	1	2.290236	21.554073	14.368118
75	1	30.549212	2.858947	22.158699
76	1	24.004540	18.527849	6.756787
77	1	23.446888	8.459679	31.020466
78	1	23.144458	22.706888	16.918777
79	1	12.103678	24.430981	20.584829
80	1	1.025648	28.606181	15.431834
81	1	7.267442	19.570583	18.375576
82	1	0.796613	20.125162	30.327024
83	1	24.152279	11.263385	19.014866
84	1	10.561421	30.248552	10.992688
85	1	28.816451	30.558276	19.712856
86	1	13.030841	13.491281	2.991465
87	1	30.660492	6.977258	2.687001
88	1	23.364226	4.202158	1.716654
89	1	15.818486	17.654134	29.039288
90	1	14.424849	2.347767	4.655533
91	1	2.800769	3.249323	30.137106
92	1	0.786986	28.817764	20.037057
93	1	14.764929	15.659705	21.041341
94	1	7.926859	30.053209	11.033466
95	1	19.316235	14.650305	11.496430
96	1	1.271456	19.130504	11.078299
97	1	6.043735	18.604110	30.010925
98	1	10.079095	5.472580	10.008523
99	1	6.368501	30.075208	2.282485
100	1	19.466180	17.742038	13.074133
101	1	19.188898	11.827192	31.900976
102	1	21.302243	16.857251	31.948984
103	1	7.955266	18.976144	3.642833
104	1	7.066452	16.421702	26.143806
105	1	6.925598	25.065995	25.112485
106	1	19.990472	18.843991	21.478398
107	1	25.525970	4.113019	20.490309
108	1	22.599759	20.837260	13.315023
109	1	5.520751	23.473474	26.415888
110	1	4.859511	20.809784	12.011922
111	1	16.343154	3.382859	28.162575
112	1	13.475347	4.046374	24.802868
113	1	20.300653	1.574356	0.462746
114	1	20.005203	5.456972	30.402665
115	1	7.155441	11.846455	29.963242
116	1	10.601418	17.247677	23.636647
117	1	6.594362	7.832689	8.883873
118	1	20.818312	17.169783	27.171981
119	1	5.264911	29.340577	7.693813
120	1	30.279592	20.266064	7.221102
121	1	20.215190	8.709225	13.061012
122	1	23.330460	30.345059	3.524502
123	1	1.210619	15.627283	8.377112
124	1	2.975029	29.480031	8.391342
125	1	8.292281	16.210092	23.835506
126	1	1.036911	4.768927	31.480211
127	1	9.601771	4.528500	22.387175
128	1	0.630157	8.688203	3.179449
129	1	3.265325	0.429360	29.971891
130	1	23.578224	4.560695	18.776014
131	1	28.767613	5.351360	6.589023
132	1	19.529044	29.528380	19.581744
133	1	31.935607	4.632951	9.427036
134	1	3.675291	11.249733	10.792711
135	1	17.335819	5.154589	26.357364
136	1	2.143270	3.562031	15.311748
137	1	6.938885	15.782811	12.002919
138	1	12.086881	9.853439	31.645025
139	1	13.950755	0.715678	22.243791
140	1	26.794531	12.623538	9.402676
141	1	16.629012	4.644224	0.501880
142	1	31.993922	7.760780	15.159763
143	1	1.847877	26.528897	16.688364
144	1	27.442873	9.688896	2.949179
145	1	9.401298	24.115184	2.611814
146	1	6.687188	27.410422	2.841312
147	1	13.795698	18.268431	20.745374
148	1	6.210962	13.862820	9.951826
149	1	16.337809	6.164548	13.266759
150	1	16.739361	29.728169	27.114714
151	1	27.933462	7.606860	13.603214
152	1	7.467177	8.904394	13.257261
153	1	21.124524	11.062681	30.550308
154	1	29.034430	29.725086	21.996718
155	1	24.645063	15.593985	12.857514
156	1	6.495875	21.453215	16.642563
157	1	8.819684	26.176356	26.232966
158	1	21.117422	5.749953	3.025100
159	1	28.285845	12.861376	32.049597
160	1	27.888269	16.246298	2.725486
161	1	31.794837	18.689137	16.858567
162	1	31.469250	1.515153	4.381121
163	1	28.027805	21.142011	12.408839
164	1	10.351107	29.566421	15.351011
165	1	3.655608	23.232257	30.726263
166	1	4.339390	28.698429	2.089810
167	1	22.092623	9.900651	11.658138
168	1	19.181454	4.617789	18.065348
169	1	11.976215	17.885952	17.458381
170	1	6.346151	26.061480	16.522830
171	1	27.981029	29.756960	31.262479
172	1	14.358242	11.532364	11.871507
173	1	8.423217	15.247804	14.043732
174	1	3.127334	24.859491	3.196189
175	1	8.980908	5.891425	25.336582
176	1	27.031175	24.251947	23.149763
177	1	14.406021	15.351861	28.635698
178	1	21.927322	15.784993	29.726317
179	1	25.402161	11.318532	14.482241
180	1	21.811786	24.662441	4.983355
181	1	25.848469	7.700710	2.956185
182	1	16.317275	10.947470	6.430887
183	1	29.658396	25.226676	1.378321
184	1	23.111654	10.651665	29.086903
185	1	20.334512	26.623075	22.822488
186	1	4.251367	12.925106	3.354369
187	1	4.277576	16.452422	26.246087
188	1	5.827982	12.889817	24.562783
189	1	2.375765	27.270395	2.351194
190	1	9.322358	6.050873	27.846957
191	1	12.984419	7.601266	6.261659
192	1	26.833399	16.561294	20.150269
193	1	9.883425	10.269921	7.699401
194	1	18.009901	7.866586	14.404302
195	1	17.091671	14.559385	5.461197
196	1	31.243837	10.854061	4.191023
197	1	14.923059	30.841136	28.768387
198	1	26.716271	2.837751	29.501214
199	1	19.203921	9.098501	18.713520
200	1	24.433001	17.944378	23.063769
201	1	12.202637	15.600926	27.704356
202	1	16.317749	25.256673	29.485843
203	1	26.650335	31.875273	16.388255
204	1	18.011484	29.571577	9.698042
205	1	9.202399	0.301593	30.504306
206	1	16.339865	1.657095	8.690761
207	1	30.703828	0.595423	28.755896
208	1	17.581165	15.349265	9.497856
209	1	5.840384	11.931502	16.189845
210	1	21.486941	12.025864	15.536716
211	1	28.816305	26.004789	10.662263
212	1	23.753250	15.588962	3.756932
213	1	9.082294	17.689241	7.628230
214	1	14.116697	23.780206	3.525611
215	1	1.830089	26.758178	19.302994
216	1	10.572706	25.161182	17.686763
217	1	16.686876	22.275626	11.077806
218	1	17.856089	3.348526	9.236867
219	1	17.693691	10.792378	17.514142
220	1	6.513524	18.244291	25.043177
221	1	19.781828	21.924588	21.078030
222	1	17.058068	27.481497	30.749102
223	1	29.395464	8.240683	11.501079
224	1	29.552011	21.373787	3.060115
225	1	25.130910	25.934715	29.498397
226	1	7.188487	26.114220	9.571354
227	1	17.441349	31.677048	15.420552
228	1	7.005129	20.616708	31.593711
229	1	15.092358	3.100047	17.682822
230	1	1.652320	13.765240	12.234076
231	1	8.212980	30.565558	4.822501
232	1	31.892606	12.723251	2.470329
233	1	2.935363	0.608751	0.984484
234	1	6.451230	1.321529	16.316715
235	1	15.192972	3.025442	23.063740
236	1	13.393257	17.744628	8.207819
237	1	17.945112	31.555797	17.991265
238	1	2.902007	15.678734	24.013914
239	1	6.166297	7.722578	6.553651
240	1	1.457732	22.610850	18.653000
241	1	19.167033	21.935949	10.747403
242	1	18.767098	21.753865	27.860937
243	1	14.123119	9.328819	10.370708
244	1	2.434782	11.564317	22.280564
245	1	31.217625	1.321213	12.931266
246	1	7.949865	24.491567	7.629918
247	1	14.658471	15.067227	15.413593
248	1	10.536401	13.260913	11.663893
249	1	25.795428	23.604242	29.464958
250	1	24.879685	16.082857	21.445356
251	1	12.853901	10.839661	17.294758
252	1	14.845900	15.767317	12.908673
253	1	21.470998	9.699581	4.897873
254	1	10.758544	9.087199	17.384400
255	1	2.643731	5.078861	22.689580
256	1	12.870938	25.279814	5.480530
257	1	14.053560	25.658082	15.466695
258	1	20.997095	25.941779	31.217565
259	1	4.393606	27.979570	15.767973
260	1	6.116540	29.858040	24.506211
261	1	9.689318	29.685438	31.526643
262	1	10.456629	13.811960	28.151203
263	1	21.787937	21.298372	10.790186
264	1	10.041041	8.106589	3.004061
265	1	5.536777	24.593870	8.246303
266	1	2.040770	16.259402	30.565874
267	1	2.225682	22.868572	2.076356
268	1	29.804700	5.551724	22.355501
269	1	5.138965	12.008463	28.237457
270	1	5.625349	14.351798	17.266098
271	1	12.583920	20.438760	20.740583
272	1	16.761863	9.956620	15.316678
273	1	11.822071	5.215811	28.501153
274	1	9.768498	20.267749	26.922912
275	1	4.184255	0.954981	15.335353
276	1	25.973815	4.613531	13.723785
277	1	24.915000	25.266011	24.823384
278	1	2.392480	17.615843	17.218125
279	1	27.336479	29.628550	15.744819
280	1	7.770504	10.241285	11.166052
281	1	8.672603	12.006157	32.091499
282	1	26.552376	18.938239	21.591022
283	1	27.317796	14.991592	9.965743
284	1	18.317556	25.355756	23.329034
285	1	19.605675	7.065333	17.082127
286	1	2.319187	3.090329	1.124669
287	1	30.947354	1.869917	6.828161
288	1	29.491928	14.889076	11.179256
289	1	29.641876	2.712923	14.498469
290	1	6.987315	1.916753	22.484713
291	1	5.897591	2.533299	5.545230
292	1	6.259382	31.462554	6.444376
293	1	1.726350	2.553232	3.612641
294	1	29.837525	9.233212	2.813046
295	1	9.910982	12.737154	24.950531
296	1	23.223500	14.382448	31.854295
297	1	17.418361	14.416114	25.894664
298	1	18.896144	8.711501	26.959770
299	1	18.542396	7.608289	9.176668
300	1	13.314526	27.404502	1.131286
301	1	6.127487	2.098914	25.741768
302	1	4.925526	4.201953	26.481905
303	1	8.112226	15.301463	27.983379
304	1	8.004405	6.205420	6.091940
305	1	2.646382	15.992872	1.133916
306	1	3.979962	25.177583	15.786757
307	1	1.178359	23.951903	4.609304
308	1	10.873092	18.621715	31.544060
309	1	1.235258	11.899756	0.358995
310	1	3.023747	25.376619	23.471976
311	1	27.592773	11.310723	7.105758
312	1	2.268718	15.745847	13.532691
313	1	10.673403	30.798142	3.790707
314	1	17.561188	29.591384	31.942581
315	1	21.842294	11.417198	6.585493
316	1	13.664431	11.164990	6.602245
317	1	4.382862	31.412704	12.998826
318	1	14.694620	11.838755	18.859058
319	1	13.102919	19.206390	10.153092
320	1	23.183565	31.858821	18.596061
321	1	26.924671	21.537380	22.604718
322	1	29.213557	16.552733	19.352058
323	1	29.009806	4.508108	24.531153
324	1	12.884509	29.312360	28.694611
325	1	12.033312	1.641992	20.214169
326	1	1.318544	6.828778	9.710917
327	1	12.086146	8.979899	24.858488
328	1	28.572940	27.758760	8.578609
329	1	19.291270	14.920888	4.171612
330	1	29.144664	8.647570	17.952568
331	1	7.176607	23.121524	3.452576
332	1	4.651968	10.319808	3.167986
333	1	10.896238	17.849908	27.182210
334	1	1.830712	30.166836	21.748279
335	1	7.533260	28.679796	22.681387
336	1	29.015914	15.577883	6.510504
337	1	12.362839	2.637941	29.678601
338	1	20.634576	11.280496	22.270790
339	1	7.685462	29.241982	6.870191
340	1	25.858959	24.549451	10.761524
341	1	10.941849	14.096396	9.341208
342	1	24.403957	1.360507	10.073218
343	1	29.447403	0.623723	2.976347
344	1	17.483053	17.920768	9.355223
345	1	11.446807	20.562710	1.637151
346	1	7.434954	16.480904	30.217532
347	1	27.427626	20.106243	27.744658
348	1	28.336238	16.641561	14.961091
349	1	7.029651	2.869328	29.885061
350	1	16.904656	31.701034	12.733942
351	1	22.613391	7.862211	21.515907
352	1	1.863143	30.753271	31.304757
353	1	8.166596	16.042361	2.523907
354	1	22.495883	10.296055	26.428261
355	1	17.901326	2.287351	0.510443
356	1	20.921717	13.438065	13.506858
357	1	17.737089	8.636844	2.057492
358	1	21.629495	12.323091	1.257544
359	1	15.977256	29.764121	24.643731
360	1	2.845664	3.987055	27.644223
361	1	10.668613	26.544148	5.379333
362	1	25.434128	2.560795	27.193420
363	1	24.641533	9.865862	12.307660
364	1	17.328149	25.683691	25.609013
365	1	27.806859	25.248430	3.887132
366	1	28.772446	10.208612	4.985268
367	1	28.373063	19.583446	23.296234
368	1	27.594748	20.569165	1.299356
369	1	2.490286	1.984334	19.439239
370	1	27.665515	3.388634	19.034354
371	1	25.156380	24.430009	27.037780
372	1	6.454363	9.523303	15.539008
373	1	29.222098	0.664689	5.507917
374	1	25.640790	24.656513	0.420599
375	1	19.287594	16.333932	30.571893
376	1	27.971446	1.518734	27.586747
377	1	5.723953	18.748901	13.771096
378	1	7.319014	2.417954	11.403741
379	1	3.105824	0.434702	21.356471
380	1	11.815897	4.897948	30.938124
381	1	16.832046	27.198471	9.746529
382	1	5.687607	15.200927	7.888229
383	1	3.335189	28.756765	19.982555
384	1	20.595140	6.509821	22.180146
385	1	30.632566	24.227443	21.044303
386	1	25.671688	28.813585	11.744390
387	1	15.181621	5.204404	19.402149
388	1	22.567909	25.935447	24.095113
389	1	6.810710	30.373704	13.079141
390	1	29.329479	4.904080	9.033803
391	1	18.055098	23.192548	8.773776
392	1	21.282304	8.038514	26.170000
393	1	14.019413	25.672680	19.877879
394	1	27.531580	24.857461	15.211414
395	1	16.717799	1.316319	19.085624
396	1	21.027950	5.101910	11.664076
397	1	4.185035	27.370256	11.889602
398	1	6.468063	3.899679	16.002142
399	1	20.744385	4.597184	25.705023
400	1	21.105795	29.264765	12.796184
401	1	23.055039	11.758033	13.022262
402	1	29.927729	30.011770	12.324658
403	1	18.270726	12.577534	10.042506
404	1	13.734928	3.020027	15.592031
405	1	21.727102	28.388145	7.717239
406	1	16.027877	16.435078	1.771472
407	1	3.599097	13.861624	25.647380
408	1	17.421187	3.913664	13.275543
409	1	26.855031	11.156811	30.808420
410	1	9.431471	4.669241	31.990078
411	1	8.289584	17.588100	19.908252
412	1	4.516739	16.825398	12.602774
413	1	16.450044	2.780807	30.483414
414	1	10.616568	23.925600	4.869910
415	1	0.655474	15.448455	2.758807
416	1	20.961862	25.717466	11.198498
417	1	24.105132	11.899898	16.496585
418	1	7.856041	19.794484	8.649899
419	1	15.313830	7.533209	18.441950
420	1	22.816871	14.379498	24.809642
421	1	14.665846	25.122253	1.512026
422	1	9.683715	31.142092	26.714700
423	1	24.641843	14.488091	17.118949
424	1	31.350566	7.405126	17.462185
425	1	28.161024	28.438993	11.003560
426	1	23.906984	30.528602	25.701358
427	1	27.675757	12.249805	14.172533
428	1	22.958560	28.549874	26.818605
429	1	18.653337	13.130524	29.703519
430	1	30.541894	16.658905	1.634024
431	1	30.717421	19.488372	4.876189
432	1	31.783397	21.987624	8.316396
433	1	23.714966	31.909320	30.076064
434	1	21.721196	15.052950	10.321118
435	1	5.034784	13.025995	30.844434
436	1	29.362228	24.770847	24.423983
437	1	30.528314	12.381961	0.328513
438	1	15.250799	19.112162	8.512068
439	1	25.339701	9.363423	19.877711
440	1	11.607426	5.699964	21.316165
441	1	30.341908	9.644056	29.594288
442	1	24.954486	16.402732	6.053640
443	1	4.452370	25.897671	25.769749
444	1	31.067592	17.946922	26.325701
445	1	31.637871	19.624901	9.105469
446	1	13.618826	24.557242	7.886675
447	1	22.219342	19.338084	31.994278
448	1	19.685503	1.940307	22.314847
449	1	25.520709	23.534594	16.067445
450	1	5.126571	4.400465	12.036067
451	1	2.516853	19.635339	15.930194
452	1	23.511185	20.718531	19.196399
453	1	23.972778	19.721997	11.076304
454	1	12.348213	14.799456	30.082349
455	1	30.439059	2.641284	9.132685
456	1	12.727219	4.181389	19.456483
457	1	13.846625	8.313753	0.658912
458	1	8.351743	6.489601	3.435400
459	1	11.162644	17.900999	13.611206
460	1	32.022323	21.421353	10.800064
461	1	15.916688	31.759085	20.857087
462	1	11.842194	22.535006	3.420638
463	1	2.769006	24.612255	18.093026
464	1	29.525060	20.313253	16.931119
465	1	26.065937	27.257720	7.330712
466	1	12.770872	17.654628	30.074759
467	1	4.528921	29.714972	17.811472
468	1	2.722658	4.851746	25.160242
469	1	19.612570	19.415091	27.372113
470	1	15.362805	4.036049	9.556584
471	1	28.697654	7.458403	9.201719
472	1	27.096973	10.079877	18.276393
473	1	2.421650	5.756613	29.475763
474	1	27.432725	22.498902	7.799444
475	1	17.659420	11.016061	22.364491
476	1	29.542770	30.332950	9.773457
477	1	3.435981	12.084875	5.541846
478	1	20.520591	25.927220	28.567843
479	1	9.124410	21.278500	17.900462
480	1	17.376670	25.752374	19.254870
481	1	14.811097	10.558691	22.077729
482	1	13.148232	3.599306	2.923191
483	1	29.837023	16.816119	12.859596
484	1	24.341445	7.622427	7.211947
485	1	32.045785	28.491948	12.879215
486	1	16.852809	19.907869	18.434202
487	1	6.980643	21.447049	10.603302
488	1	4.967410	23.930491	24.012160
489	1	30.977648	23.164064	1.764897
490	1	28.486590	17.149472	10.721046
491	1	10.729895	12.572911	4.118327
492	1	2.585984	19.946609	28.409902
493	1	4.083302	26.526951	20.791031
494	1	23.344800	8.427134	19.112032
495	1	6.922706	30.850236	8.860590
496	1	5.227150	10.543904	30.841196
497	1	9.659255	2.363486	2.740618
498	1	12.510223	9.803740	12.435296
499	1	10.786730	22.247429	14.377578
500	1	11.996994	23.120762	12.670072
501	1	20.988113	31.893365	12.255080
502	1	4.184569	3.209419	21.494377
503	1	17.419422	16.503164	11.896976
504	1	11.354641	15.002209	5.106230
505	1	29.536625	15.910628	8.740772
506	1	0.321532	13.067885	7.763613
507	1	10.336661	27.356606	16.356900
508	1	2.054360	25.142958	29.955739
509	1	5.762407	18.103956	22.523048
510	1	20.061442	11.623572	17.641190
511	1	4.193444	23.157189	19.552338
512	1	19.579173	6.251482	6.686288
513	1	14.590306	6.656607	11.473334
514	1	16.523575	5.412904	17.405493
515	1	23.552078	19.749632	2.476138
516	1	12.158739	12.174742	13.363450
517	1	26.738036	22.312867	31.468837
518	1	5.437944	31.731590	26.279480
519	1	30.479916	8.409046	32.095426
520	1	20.813595	4.199164	23.374847
521	1	7.072261	20.530067	26.223846
522	1	27.837051	21.696055	18.381442
523	1	3.346843	9.292509	22.949905
524	1	15.384864	6.592385	31.126825
525	1	3.862864	9.748853	27.671843
526	1	23.233559	9.471487	6.821953
527	1	31.546956	26.511253	20.763657
528	1	23.925302	2.553844	29.524202
529	1	17.184395	3.704015	19.243637
530	1	28.766301	5.175332	2.631757
531	1	28.884639	28.060728	27.039356
532	1	2.322474	13.593471	1.879980
533	1	26.287102	9.157986	8.324254
534	1	3.197032	31.529323	27.428428
535	1	6.062444	23.422607	15.092013
536	1	26.940182	28.538040	23.071861
537	1	19.861354	7.568061	1.447329
538	1	23.622983	27.630576	15.946126
539	1	17.276982	10.032799	4.146114
540	1	31.839842	8.738807	25.671065
541	1	3.648510	28.120234	24.653015
542	1	29.475685	7.424029	15.635192
543	1	15.071477	20.325713	28.754497
544	1	24.187374	22.923169	31.254581
545	1	27.443530	19.384059	10.487457
546	1	2.742847	21.145552	-1.135226
547	1	2.637242	22.950583	22.988272
548	1	25.194457	18.643394	19.602107
549	1	21.023037	12.040408	28.231714
550	1	16.363063	24.807312	16.054965
551	1	8.563387	18.711660	30.666080
552	1	26.246513	21.070505	20.113173
553	1	5.635717	13.936395	21.474021
554	1	6.660378	7.956926	17.806109
555	1	6.949777	2.479563	3.145637
556	1	29.726963	19.633062	28.016522
557	1	6.300612	8.990865	23.915975
558	1	2.698726	8.554819	25.704079
559	1	10.034802	31.498382	17.094029
560	1	20.364495	14.308314	19.886745
561	1	25.665856	31.017234	4.004613
562	1	4.912174	30.798197	19.988760
563	1	1.918742	26.587642	4.895480
564	1	27.317546	29.047732	6.290999
565	1	13.433709	15.954093	2.108382
566	1	9.222360	26.588157	2.599844
567	1	31.026897	13.834976	4.404906
568	1	12.240783	30.246105	13.282865
569	1	5.914751	27.937427	32.135521
570	1	24.965376	10.061706	27.249578
571	1	30.925812	21.534064	29.475349
572	1	29.377753	17.642367	17.023274
573	1	22.621399	15.089324	20.407026
574	1	10.650371	0.958472	28.630038
575	1	29.430581	26.253543	16.803056
576	1	22.652483	20.354502	16.571981
577	1	13.078165	20.115484	7.152383
578	1	17.439223	25.455054	8.105795
579	1	27.983318	2.975339	10.103868
580	1	2.910963	31.521660	10.834412
581	1	21.626533	18.737358	11.833747
582	1	15.465949	1.205100	6.486324
583	1	25.157497	23.369918	8.502858
584	1	27.585153	21.057588	25.204860
585	1	1.237583	2.940713	7.967837
586	1	0.838685	5.283873	11.702834
587	1	29.673445	27.400539	12.784247
588	1	6.259300	6.589140	12.635703
589	1	14.140891	2.324235	31.546349
590	1	4.739378	21.001562	14.562057
591	1	31.145434	3.214516	32.088331
592	1	20.059902	10.694541	26.207625
593	1	30.596367	5.780466	4.906975
594	1	21.878208	0.698177	9.963863
595	1	0.958982	3.212025	26.193793
596	1	3.778204	11.677233	0.917776
597	1	3.829739	14.833803	9.210153
598	1	26.186143	25.707208	19.499614
599	1	7.358512	30.159476	26.990898
600	1	23.029240	21.823500	1.465126
601	1	17.969066	6.427374	22.273161
602	1	4.249658	16.182636	21.783704
603	1	19.934536	3.186307	16.069181
604	1	2.500644	8.995905	10.212464
605	1	27.378558	15.655549	12.544159
606	1	14.767155	13.461596	30.611366
607	1	10.240784	4.177159	26.640878
608	1	26.445758	18.988263	5.729086
609	1	9.676471	9.607335	0.888934
610	1	25.589798	8.827473	14.329598
611	1	6.355670	32.025612	10.994534
612	1	23.311743	17.448976	1.716260
613	1	22.373915	12.576198	20.624295
614	1	21.683902	29.060619	15.303786
615	1	13.201303	16.597836	19.077444
616	1	11.952790	31.478577	22.011328
617	1	30.143932	12.959458	24.821206
618	1	23.856364	11.208011	4.935102
619	1	17.786249	22.728880	15.294534
620	1	22.287282	6.468879	8.385869
621	1	4.585596	31.722871	8.674913
622	1	20.227606	4.080608	13.766332
623	1	21.481721	15.391208	5.200590
624	1	5.969479	6.404748	1.971072
625	1	2.567238	17.517659	5.963897
626	1	26.224810	13.497458	27.330718
627	1	8.173702	22.530766	1.074576
628	1	23.726175	25.531015	4.071289
629	1	24.192829	19.968101	4.751048
630	1	31.207240	11.768488	9.620514
631	1	30.915260	16.065173	15.296044
632	1	28.663894	8.730931	6.965384
633	1	21.191890	21.093073	28.528240
634	1	17.776642	10.325623	8.419167
635	1	12.192184	15.157472	20.799055
636	1	20.488458	15.155561	25.406431
637	1	14.977627	9.171344	7.759893
638	1	7.020012	28.357548	9.204647
639	1	18.057167	6.079519	2.590059
640	1	24.573603	16.991384	8.623398
641	1	6.429131	0.527523	30.555762
642	1	10.518493	8.200851	13.030684
643	1	8.781902	31.525740	7.234649
644	1	8.090269	11.741658	20.544263
645	1	14.235242	11.665455	26.311202
646	1	22.514172	21.691475	23.338738
647	1	14.259203	22.563047	11.877914
648	1	2.097844	18.370980	26.602077
649	1	5.713233	16.485463	28.328030
650	1	27.067718	6.023217	0.532098
651	1	23.736483	8.669653	4.321637
652	1	4.425457	16.297132	17.314763
653	1	21.972395	29.274648	17.846422
654	1	22.315178	19.325127	27.118904
655	1	16.376522	21.342108	24.606089
656	1	4.594042	23.779473	1.373369
657	1	26.002898	17.333054	14.160380
658	1	16.626670	14.127827	14.105842
659	1	1.610910	11.813113	16.397792
660	1	26.639108	4.428953	5.578610
661	1	31.033469	14.300280	22.735517
662	1	3.571049	30.594990	6.118826
663	1	16.217728	16.669556	26.770714
664	1	18.130836	26.468554	5.991396
665	1	1.607709	20.346726	1.092128
666	1	3.843998	13.426745	23.139836
667	1	1.753641	1.599437	5.881230
668	1	9.657458	30.387985	22.525953
669	1	11.390956	22.376616	19.317647
670	1	9.855381	13.312310	14.013614
671	1	17.134058	29.747805	29.548357
672	1	29.344262	12.419366	16.050101
673	1	26.864517	0.743222	9.346905
674	1	27.762586	5.781350	20.325039
675	1	21.786554	23.670984	32.118522
676	1	14.052161	28.389502	12.664895
677	1	5.358961	30.963145	28.812567
678	1	15.013522	18.813878	30.881035
679	1	26.656110	7.583502	18.319660
680	1	14.631103	17.623120	25.047803
681	1	8.854216	8.339216	19.200661
682	1	2.891320	29.086605	4.144345
683	1	30.440796	5.067828	26.711102
684	1	3.534270	17.077472	15.056555
685	1	17.289873	29.797122	22.353974
686	1	8.776016	0.334039	12.534362
687	1	31.943773	1.033382	18.466442
688	1	21.298399	23.240233	2.887529
689	1	18.543514	12.560265	12.558974
690	1	13.237730	0.767703	14.574667
691	1	30.710701	6.468500	10.558877
692	1	24.110760	22.116036	12.088339
693	1	31.482067	13.448331	17.246573
694	1	15.316344	31.821691	26.253995
695	1	10.792624	22.777648	16.788388
696	1	5.763043	30.654423	15.549962
697	1	0.364628	17.720724	12.780409
698	1	22.852276	30.103091	23.319225
699	1	9.234539	29.724917	8.858874
700	1	6.548505	20.151306	23.665267
701	1	27.619047	30.783688	11.597428
702	1	12.386796	17.123030	4.058182
703	1	21.481517	4.181651	6.943926
704	1	30.015186	17.692508	23.615622
705	1	16.799102	10.868014	11.236392
706	1	22.746008	31.037310	14.026746
707	1	25.247740	27.087230	27.055831
708	1	3.292252	29.605780	29.286875
709	1	1.184012	19.289287	21.369942
710	1	5.847359	14.287385	26.787439
711	1	3.879894	24.345244	28.147778
712	1	20.031772	30.951806	14.404380
713	1	3.896330	2.493037	8.230645
714	1	0.482287	21.684048	24.336669
715	1	1.662851	23.132686	9.779437
716	1	5.277834	28.187380	29.696420
717	1	23.665866	25.498844	19.897848
718	1	5.546807	6.114913	10.190115
719	1	21.713855	20.700943	3.790351
720	1	6.764653	21.093240	5.044258
721	1	18.261317	24.434104	27.846111
722	1	9.942729	15.366725	7.189297
723	1	4.949120	16.689202	5.916877
724	1	18.470323	21.380495	17.236310
725	1	2.549226	7.948440	14.600875
726	1	21.284841	24.335113	15.878575
727	1	7.738551	31.042513	0.485526
728	1	14.259776	29.477911	26.582030
729	1	31.148393	30.547023	19.124465
730	1	30.200167	9.051183	13.809507
731	1	28.835579	18.080195	21.289556
732	1	1.514408	15.521087	15.948233
733	1	24.742271	2.872991	22.553178
734	1	6.709122	27.847495	11.871808
735	1	22.284227	10.402261	17.233627
736	1	26.595729	1.191104	11.923366
737	1	26.777115	8.332913	10.729552
738	1	11.953473	22.127002	8.336864
739	1	26.003583	10.668936	10.397283
740	1	16.914524	2.750694	4.682853
741	1	11.766920	16.330019	32.026495
742	1	25.040220	5.271513	23.002499
743	1	31.409191	29.060309	26.690427
744	1	4.895021	5.735779	21.521011
745	1	7.453059	15.987045	6.598860
746	1	19.855949	17.077922	15.778520
747	1	27.915429	13.915168	19.730108
748	1	15.540847	20.863108	6.635609
749	1	8.517954	22.695598	6.011309
750	1	10.079336	11.811600	22.433285
751	1	12.049237	29.514481	31.533905
752	1	16.438311	7.537935	3.954741
753	1	27.205724	26.241458	1.622776
754	1	11.006480	4.207474	17.275631
755	1	28.918647	0.519311	8.224594
756	1	21.796769	27.852430	10.830144
757	1	0.510107	3.821801	5.363072
758	1	18.715074	12.682688	27.138410
759	1	6.021192	22.855386	31.478568
760	1	12.158159	24.804559	24.507009
761	1	2.620840	20.621399	23.198360
762	1	3.679518	18.111850	1.504807
763	1	28.271964	27.129105	14.856776
764	1	10.124671	27.325193	13.728425
765	1	30.202568	11.478135	13.851680
766	1	27.196381	13.837112	2.171711
767	1	11.670641	29.282216	20.949241
768	1	12.599191	30.816460	16.129510
769	1	15.400550	21.274808	31.287731
770	1	10.946527	4.747928	24.253862
771	1	14.710414	26.514464	31.151895
772	1	28.376277	7.704878	1.536177
773	1	31.258384	0.352033	8.824145
774	1	6.626475	22.068839	7.953243
775	1	31.443627	22.128742	5.813585
776	1	29.866094	2.888122	2.219057
777	1	25.177263	12.103873	29.261449
778	1	8.469528	23.542923	14.283029
779	1	17.719351	29.584325	14.148792
780	1	12.607043	25.206410	31.950812
781	1	21.283421	14.827211	15.628997
782	1	19.067435	-0.376726	23.558954
783	1	1.227765	3.372487	17.629456
784	1	17.666945	3.740209	2.639680
785	1	15.751361	4.469485	15.269901
786	1	10.072465	27.876875	22.422968
787	1	10.960154	26.928760	24.765122
788	1	26.338558	27.086816	9.986370
789	1	12.982820	13.075052	15.827746
790	1	17.116945	17.245264	31.309881
791	1	17.424074	8.143600	17.068117
792	1	26.532798	11.560751	1.493262
793	1	5.624291	25.007922	3.724174
794	1	23.122929	27.974844	3.945023
795	1	21.510202	28.055168	24.741856
796	1	24.404445	26.640014	2.034103
797	1	23.680657	8.634000	1.648191
798	1	14.412603	31.985277	12.323193
799	1	1.648415	18.080051	8.665132
800	1	12.904407	21.680438	17.369344
801	1	27.383503	15.762486	26.877809
802	1	23.518883	21.372144	8.934560
803	1	23.756962	31.878684	5.768049
804	1	19.966183	17.269909	4.236605
805	1	9.022361	18.311739	25.344520
806	1	31.828350	27.702060	1.227027
807	1	0.322231	5.237097	21.436532
808	1	2.877663	12.036782	13.366498
809	1	28.431815	14.368244	4.386578
810	1	15.317984	24.970506	5.518024
811	1	1.340188	8.186700	7.420353
812	1	26.420909	1.150044	23.150568
813	1	27.925717	30.898795	23.955737
814	1	13.186747	4.216397	8.207471
815	1	20.409542	16.319442	21.382556
816	1	30.082956	22.250632	12.006389
817	1	14.133860	7.497589	25.013117
818	1	8.638279	3.361045	9.314250
819	1	10.192244	13.570627	20.617377
820	1	6.478576	9.589970	19.832577
821	1	9.970656	20.244682	13.313722
822	1	16.301620	11.689899	13.594159
823	1	27.414449	16.690978	5.177961
824	1	28.859961	18.392937	6.241839
825	1	21.841920	31.397134	16.343706
826	1	10.476834	25.406844	22.324459
827	1	24.906637	15.483786	23.910257
828	1	31.894829	23.552750	26.132735
829	1	13.051759	11.152731	3.688329