ITEM: TIMESTEP
0
ITEM: NUMBER OF ATOMS
2000
ITEM: BOX BOUNDS pp pp pp
0.299875	32.130125
0.299875	32.130125
0.299875	32.130125
ITEM: ATOMS id type x y z
1	1	8.077344	21.750804	22.157891
2	1	25.687039	0.636830	28.741981
3	1	19.932488	11.660757	8.384790
4	1	16.136474	26.463831	11.928900
5	1	23.467561	19.830609	24.739948
6	1	3.823712	19.110010	21.336647
7	1	22.760500	23.687279	25.361989
8	1	9.605234	18.574700	18.008752
9	1	15.044344	16.988303	17.013699
10	1	21.802445	3.697396	31.133184
11	1	19.483825	18.779823	8.042261
12	1	6.596954	4.809296	31.800010
13	1	22.368831	11.937996	24.172402
14	1	4.173353	6.657046	5.404910
15	1	3.414858	30.673096	25.073124
16	1	26.004839	19.636244	24.056514
17	1	7.400759	26.552231	30.434868
18	1	15.531463	29.607289	6.352617
19	1	27.892181	18.347164	12.941103
20	1	2.977429	24.711854	8.591451
21	1	31.702502	15.314981	12.517250
22	1	23.614446	28.619933	13.487356
23	1	8.847868	29.343699	17.458734
24	1	20.581054	31.520430	18.516385
25	1	16.632705	29.366998	16.597895
26	1	23.370060	17.404911	28.154804
27	1	30.196686	28.624090	5.215515
28	1	24.379672	26.233844	14.206918
29	1	9.071704	29.006162	20.155424
30	1	17.978485	26.927588	16.300084
31	1	27.901478	3.002644	12.649529
32	1	25.688531	1.315392	31.276303
33	1	21.316460	3.764426	19.327389
34	1	26.150207	20.528283	3.559349
35	1	24.815889	13.034712	24.450797
36	1	5.843409	0.644694	1.399032
37	1	22.052130	18.948862	22.989636
38	1	18.114349	31.848063	1.133778
39	1	25.440701	17.555931	25.322581
40	1	23.633093	18.375088	17.689561
41	1	28.879523	0.571084	21.991371
42	1	17.267807	18.736211	6.755771
43	1	8.424077	26.578616	23.778932
44	1	24.259087	21.446672	14.880291
45	1	22.740182	16.158417	22.753327
46	1	16.234932	27.435595	4.865654
47	1	21.496694	19.238838	18.762855
48	1	16.949209	14.997701	16.472324
49	1	21.563465	9.557278	0.705614
50	1	25.110158	10.287524	2.875915
51	1	10.990195	28.130054	3.649971
52	1	1.379044	7.376745	19.412152
53	1	5.541046	8.370018	26.096622
54	1	5.892367	3.754769	9.629925
55	1	12.405803	16.378364	25.365701
56	1	26.276909	1.728035	20.673810
57	1	15.117141	14.384634	9.020882
58	1	18.786705	15.203880	23.590404
59	1	11.124916	22.395065	25.711771
60	1	21.078864	18.474154	2.191831
61	1	11.576421	17.630679	6.565932
62	1	9.146226	9.066363	15.060565
63	1	13.783731	28.238308	24.495691
64	1	5.148246	4.472766	19.375432
65	1	8.681444	13.249903	2.359375
66	1	24.601683	25.651879	8.773730
67	1	25.094356	6.521504	5.063904
68	1	30.064123	25.709528	8.420858
69	1	25.473441	31.146039	10.847644
70	1	19.061667	3.543399	11.349104
71	1	22.230759	25.438589	21.654691
72	1	4.634835	14.109959	1.205523
73	1	22.221914	2.360006	22.522158
74	1	2.282813	21.574666	14.363596
75	1	30.543206	2.841072	22.162722
76	1	23.983836	18.530269	6.755697
77	1	23.455490	8.454751	31.020507
78	1	23.057600	22.714721	16.905631
79	1	12.099860	24.436242	20.578771
80	1	1.036186	28.559720	15.439497
81	1	7.278177	19.551678	18.383220
82	1	0.804271	20.161073	30.282852
83	1	24.147386	11.265420	19.000580
84	1	10.558512	30.260646	11.003183
85	1	28.867574	30.582208	19.758312
86	1	13.044435	13.501059	2.984810
87	1	30.681820	6.954729	2.725389
88	1	23.380284	4.204577	1.721590
89	1	15.840278	17.671083	29.038644
90	1	14.425857	2.291945	4.583331
91	1	2.757810	3.245882	30.105099
92	1	0.793030	28.801911	20.060287
93	1	14.751024	15.661324	21.036846
94	1	7.928650	30.048011	11.047887
95	1	19.312649	14.645369	11.508598
96	1	1.246055	19.164922	11.080842
97	1	6.066944	18.600684	30.007206
98	1	10.026141	5.492707	10.003425
99	1	6.356224	29.791580	1.745111
100	1	19.461206	17.738407	13.058639
101	1	19.210280	11.857604	31.907072
102	1	21.270812	16.942190	31.955311
103	1	7.958188	19.004289	3.646043
104	1	7.113304	16.411373	26.135698
105	1	6.948322	25.066052	25.166146
106	1	20.002940	18.869774	21.453237
107	1	25.522580	4.113138	20.508736
108	1	22.526042	20.846162	13.205087
109	1	5.534474	23.457312	26.446427
110	1	4.823887	20.833266	12.003733
111	1	16.319608	3.377415	28.172708
112	1	13.478344	4.049025	24.829428
113	1	20.308178	1.592362	0.444455
114	1	20.007452	5.461537	30.384926
115	1	7.171839	11.853906	29.956726
116	1	10.624098	17.265814	23.630313
117	1	6.560551	7.890287	8.934451
118	1	20.878505	17.179940	27.188343
119	1	5.224468	29.420345	7.649929
120	1	30.265248	20.269968	7.226927
121	1	20.225823	8.701132	13.021578
122	1	23.319865	30.389984	3.524034
123	1	1.202068	15.645977	8.383182
124	1	2.973873	29.496722	8.481430
125	1	8.324850	16.209059	23.829625
126	1	1.044204	4.789208	31.472166
127	1	9.631194	4.540168	22.385321
128	1	0.638796	8.686573	3.192827
129	1	3.190002	0.447234	29.931668
130	1	23.574874	4.566175	18.790713
131	1	28.756136	5.302752	6.576166
132	1	19.530169	29.503140	19.583920
133	1	31.923389	4.588895	9.419060
134	1	3.640809	11.241181	10.788356
135	1	17.328069	5.156332	26.340312
136	1	2.152114	3.560297	15.312771
137	1	6.922935	15.786669	11.995195
138	1	12.088394	9.896511	31.634251
139	1	13.948127	0.723359	22.245493
140	1	26.793514	12.621433	9.403097
141	1	16.594402	4.658924	0.536173
142	1	31.987801	7.758932	15.156346
143	1	1.857821	26.487201	16.722191
144	1	27.459266	9.686916	2.951932
145	1	9.363611	24.164633	2.604208
146	1	6.649078	27.414452	2.876213
147	1	13.801336	18.275351	20.732355
148	1	6.210191	13.885456	9.942995
149	1	16.235779	6.107319	13.303892
150	1	16.703871	29.741232	27.119243
151	1	27.941430	7.595692	13.614155
152	1	7.455341	8.915513	13.249167
153	1	21.130523	11.054644	30.551673
154	1	29.021677	29.694791	22.005834
155	1	24.630264	15.565479	12.846580
156	1	6.518716	21.437436	16.652104
157	1	8.814951	26.207058	26.280509
158	1	21.122642	5.760297	3.022276
159	1	28.301697	12.885236	32.038922
160	1	27.874218	16.238041	2.722691
161	1	31.757459	18.635075	16.890561
162	1	31.553585	1.457801	4.465466
163	1	28.001948	21.173133	12.437224
164	1	10.347724	29.577531	15.363198
165	1	3.666048	23.205988	30.721383
166	1	4.242792	28.676915	2.037380
167	1	22.092145	9.891480	11.656113
168	1	19.184806	4.579908	18.003908
169	1	11.973253	17.898513	17.440274
170	1	6.348261	26.057492	16.555251
171	1	27.988985	29.763246	31.275369
172	1	14.338250	11.554154	11.844519
173	1	8.401495	15.262812	14.043392
174	1	3.101895	24.894631	3.233975
175	1	8.996407	5.892182	25.344111
176	1	27.054041	24.255415	23.094780
177	1	14.425261	15.370311	28.645678
178	1	21.907168	15.847488	29.679384
179	1	25.405681	11.304955	14.485085
180	1	21.810898	24.700029	4.984284
181	1	25.860811	7.707883	2.969349
182	1	16.328428	10.995044	6.428255
183	1	29.616861	25.223379	1.381799
184	1	23.131400	10.645307	29.082576
185	1	20.374256	26.581938	22.781361
186	1	4.266946	12.932775	3.343320
187	1	4.320932	16.453048	26.245989
188	1	5.884056	12.854682	24.587464
189	1	2.324115	27.299084	2.381069
190	1	9.336649	6.049274	27.857872
191	1	12.990746	7.562163	6.232187
192	1	26.843866	16.559045	20.150701
193	1	9.915361	10.295946	7.700101
194	1	17.594048	7.219551	16.250077
195	1	17.101024	14.578560	5.451270
196	1	31.252510	10.855787	4.184213
197	1	14.865320	30.826607	28.764158
198	1	26.709109	2.823563	29.502054
199	1	19.288460	9.148285	18.740442
200	1	24.431276	18.003749	22.946940
201	1	12.222160	15.608703	27.698610
202	1	16.309091	25.259899	29.474167
203	1	26.666500	31.882368	16.421759
204	1	17.988502	29.601950	9.708917
205	1	9.262392	0.474643	30.595948
206	1	16.333234	1.705669	8.683790
207	1	30.640465	0.555053	28.748856
208	1	17.583724	15.351452	9.492676
209	1	5.839157	11.930509	16.184196
210	1	21.478401	11.991341	15.525731
211	1	28.757618	25.982958	10.711301
212	1	23.758751	15.601232	3.743003
213	1	9.068451	17.709470	7.624842
214	1	14.101267	23.818342	3.518456
215	1	1.849567	26.739473	19.344170
216	1	10.560534	25.164724	17.690174
217	1	16.670873	22.284259	11.056251
218	1	17.797652	3.420552	9.329936
219	1	17.689314	11.005008	17.558275
220	1	6.525166	18.228791	25.053491
221	1	19.775755	21.921682	21.050558
222	1	17.009916	27.501474	30.730302
223	1	29.391446	8.227607	11.503735
224	1	29.566792	21.393035	3.074730
225	1	25.070711	25.967900	29.536091
226	1	7.175913	26.123972	9.593622
227	1	17.442884	31.673679	15.405834
228	1	7.011470	20.631688	31.600597
229	1	15.081395	3.066646	17.655403
230	1	1.647517	13.768637	12.240884
231	1	8.452961	30.635843	4.967154
232	1	31.903685	12.725686	2.471521
233	1	2.880923	0.629028	0.912554
234	1	6.470073	1.334172	16.308363
235	1	15.188282	3.040095	23.047665
236	1	13.373540	17.781902	8.213498
237	1	17.957244	31.541545	17.985791
238	1	2.955532	15.658258	24.020396
239	1	6.127962	7.865408	6.631108
240	1	1.520242	22.585132	18.687663
241	1	19.134310	21.927921	10.716105
242	1	18.771622	21.783028	27.850568
243	1	14.109185	9.341260	10.355617
244	1	2.465520	11.537433	22.303074
245	1	31.206007	1.307961	12.959444
246	1	7.929816	24.508075	7.638293
247	1	14.645141	15.082479	15.394893
248	1	10.526745	13.268453	11.648498
249	1	25.600888	23.609992	29.462592
250	1	24.836289	16.095745	21.362042
251	1	12.808976	10.822311	17.267131
252	1	14.839234	15.787204	12.898685
253	1	21.477792	9.705622	4.901755
254	1	10.712769	9.094342	17.337394
255	1	2.658108	5.060517	22.685426
256	1	12.844602	25.314776	5.461019
257	1	14.025949	25.666753	15.469231
258	1	20.939760	25.985573	31.212539
259	1	4.381927	27.953470	15.801823
260	1	6.132791	29.850617	24.545662
261	1	9.591754	29.783344	31.606462
262	1	10.472103	13.816326	28.132164
263	1	21.753790	21.278778	10.736811
264	1	10.072481	8.137556	3.017139
265	1	5.527381	24.628144	8.244821
266	1	2.066652	16.260634	30.573917
267	1	2.194618	22.904903	2.155241
268	1	29.802989	5.527103	22.348012
269	1	5.159529	12.007605	28.233295
270	1	5.620239	14.353651	17.258471
271	1	12.589558	20.449193	20.730948
272	1	16.791141	9.850463	15.322347
273	1	11.829702	5.219383	28.527373
274	1	9.795316	20.263949	26.918968
275	1	4.188432	0.959827	15.349548
276	1	25.987890	4.576008	13.742653
277	1	24.916623	25.224055	24.794626
278	1	2.385514	17.645755	17.221320
279	1	27.396182	29.678836	15.781544
280	1	7.744518	10.228137	11.109671
281	1	8.691467	12.025203	32.080156
282	1	26.575705	19.050405	21.534387
283	1	27.314542	14.991216	9.964845
284	1	18.333455	25.352099	23.307484
285	1	19.659126	7.019484	17.163491
286	1	2.266786	3.089144	1.093342
287	1	30.865646	1.748672	6.872564
288	1	29.486371	14.894109	11.178724
289	1	29.639616	2.669816	14.571526
290	1	6.985628	1.925121	22.499740
291	1	5.579174	2.376630	5.707451
292	1	6.298458	31.519690	6.354431
293	1	1.761551	2.536485	3.649529
294	1	29.853141	9.218622	2.823261
295	1	9.955973	12.735926	24.947830
296	1	23.251987	14.248089	31.882685
297	1	17.446686	14.437613	25.902469
298	1	18.896166	8.702815	26.955235
299	1	18.547310	7.627889	9.152181
300	1	13.193761	27.338640	0.965207
301	1	6.136718	2.110312	25.747714
302	1	4.933217	4.201019	26.489040
303	1	8.143199	15.293967	27.980212
304	1	7.912194	6.272030	6.108009
305	1	2.672056	16.003446	1.139675
306	1	3.978889	25.155414	15.826964
307	1	1.163387	23.990373	4.637221
308	1	10.887732	18.641070	31.543032
309	1	1.243561	11.904484	0.343295
310	1	3.060798	25.371980	23.504348
311	1	27.600503	11.316105	7.104798
312	1	2.256485	15.778782	13.530925
313	1	10.962829	30.562994	3.830792
314	1	17.520315	29.613429	31.938605
315	1	21.840312	11.424007	6.587446
316	1	13.653871	11.207375	6.619132
317	1	4.404921	31.362219	13.078592
318	1	14.652725	11.905406	18.837182
319	1	13.089683	19.221240	10.159807
320	1	23.194018	31.856523	18.624032
321	1	26.918705	21.627968	22.562326
322	1	29.207059	16.512567	19.366512
323	1	29.001013	4.487995	24.536243
324	1	12.758957	29.245641	28.656875
325	1	12.039243	1.649031	20.201195
326	1	1.285794	6.812376	9.703075
327	1	12.122811	8.960897	24.836999
328	1	28.606457	27.766122	8.578019
329	1	19.308025	14.941938	4.158643
330	1	29.143638	8.643080	17.952885
331	1	7.152462	23.154476	3.451735
332	1	4.675992	10.336259	3.152981
333	1	10.931056	17.874446	27.186276
334	1	1.835542	30.155593	21.771747
335	1	7.533521	28.693992	22.676557
336	1	29.007684	15.572562	6.511071
337	1	12.401658	2.639652	29.769153
338	1	20.648050	11.297230	22.282603
339	1	7.643924	29.259328	6.873677
340	1	25.861708	24.565860	10.756175
341	1	10.939971	14.132120	9.333956
342	1	24.382215	1.358108	10.097491
343	1	29.475944	0.640853	3.013577
344	1	17.488660	17.932182	9.342197
345	1	11.439021	20.575496	1.642639
346	1	7.458495	16.479232	30.212755
347	1	27.361957	19.841479	27.923611
348	1	28.327503	16.630941	14.959509
349	1	7.034364	2.882695	29.884531
350	1	16.894070	31.713433	12.745688
351	1	22.637678	7.881451	21.523132
352	1	1.778833	30.731315	31.264929
353	1	8.174571	16.054348	2.522850
354	1	22.506208	10.300329	26.434358
355	1	17.919231	2.325726	0.493123
356	1	20.911337	13.427522	13.493373
357	1	17.748495	8.662018	2.057979
358	1	21.650775	12.329140	1.244528
359	1	15.975529	29.785257	24.644967
360	1	2.843289	3.975002	27.636668
361	1	10.646710	26.550488	5.412051
362	1	25.426894	2.542187	27.196126
363	1	24.631510	9.852205	12.310779
364	1	17.347690	25.713747	25.577239
365	1	27.799453	25.211997	3.845191
366	1	28.793200	10.203303	4.988376
367	1	28.385031	19.619764	23.270073
368	1	27.593211	20.607306	1.379266
369	1	2.493628	1.968769	19.445809
370	1	27.656791	3.397954	19.067665
371	1	25.203079	24.385548	26.980485
372	1	6.454161	9.520725	15.531001
373	1	29.177721	0.679661	5.488345
374	1	25.425668	24.575378	0.406153
375	1	19.270408	16.352387	30.575878
376	1	27.961715	1.498961	27.582604
377	1	5.699515	18.755647	13.768077
378	1	7.277680	2.419927	11.357642
379	1	3.111318	0.421806	21.365515
380	1	11.823870	4.886670	30.982219
381	1	16.833342	27.218770	9.743777
382	1	5.677098	15.217591	7.885981
383	1	3.341806	28.750966	20.011286
384	1	20.601270	6.524675	22.183186
385	1	30.679807	24.189279	21.108593
386	1	25.656700	28.795522	11.741489
387	1	15.201944	5.193797	19.349484
388	1	22.602090	25.894732	24.058763
389	1	6.822656	30.357992	13.110189
390	1	29.320975	4.859181	9.041530
391	1	18.056982	23.202425	8.754983
392	1	21.282740	8.041534	26.157431
393	1	14.020853	25.678516	19.873600
394	1	26.379093	25.311239	15.172904
395	1	16.730524	1.286148	19.091870
396	1	21.097433	5.070271	11.602705
397	1	4.197686	27.305181	11.933324
398	1	6.470871	3.904854	15.997498
399	1	20.736049	4.592643	25.696234
400	1	21.122851	29.235978	12.757419
401	1	23.045006	11.735757	13.032864
402	1	29.904749	29.912587	12.368276
403	1	18.273653	12.563796	10.043470
404	1	13.717130	3.041876	15.548674
405	1	21.732472	28.427489	7.769641
406	1	16.039927	16.456427	1.772675
407	1	3.666511	13.843752	25.661024
408	1	17.364876	3.913878	13.114087
409	1	26.864520	11.146864	30.807510
410	1	9.451754	4.715059	32.034534
411	1	8.304917	17.582293	19.901699
412	1	4.500932	16.835691	12.595164
413	1	16.430230	2.803735	30.511957
414	1	10.609004	23.931099	4.864575
415	1	0.673920	15.450047	2.771693
416	1	20.953431	25.719241	11.138671
417	1	24.080016	11.875888	16.492149
418	1	7.840173	19.810427	8.647254
419	1	15.317069	7.512312	18.377138
420	1	22.803252	14.384108	24.768128
421	1	14.637207	25.133970	1.491629
422	1	9.697400	31.180912	26.672615
423	1	24.648493	14.475835	17.107879
424	1	31.350215	7.399502	17.458531
425	1	28.154214	28.407497	11.022434
426	1	23.882727	30.503130	25.710979
427	1	27.674209	12.244110	14.154303
428	1	22.937225	28.501362	26.809734
429	1	18.688549	13.138383	29.706476
430	1	30.563663	16.646614	1.642284
431	1	30.717256	19.486317	4.883052
432	1	31.754544	22.004912	8.318958
433	1	23.700842	31.899022	30.066917
434	1	21.700106	15.011492	10.343110
435	1	5.060091	13.031534	30.847694
436	1	29.376047	24.743624	24.401875
437	1	30.550326	12.381209	0.333961
438	1	15.240371	19.125816	8.499274
439	1	25.320459	9.366026	19.886164
440	1	11.631876	5.710632	21.282871
441	1	30.352759	9.624114	29.542687
442	1	24.948987	16.418955	6.039529
443	1	4.470877	25.880984	25.814449
444	1	31.064992	17.934920	26.373154
445	1	31.614228	19.654269	9.123006
446	1	13.610796	24.576296	7.874804
447	1	22.221331	19.460412	31.925045
448	1	19.683271	1.943971	22.302084
449	1	25.404651	23.231453	16.027284
450	1	5.108451	4.392590	12.015014
451	1	2.638401	19.662073	15.935401
452	1	23.509732	20.716384	19.167497
453	1	23.961691	19.690118	11.047880
454	1	12.364409	14.813441	30.079107
455	1	30.424536	2.596109	9.162132
456	1	12.740892	4.181797	19.422165
457	1	13.865373	8.377666	0.652012
458	1	8.332062	6.577584	3.456323
459	1	11.149027	17.914300	13.598322
460	1	31.974235	21.465835	10.832998
461	1	15.916451	31.750781	20.858612
462	1	11.842404	22.541177	3.432711
463	1	2.801827	24.597608	18.149761
464	1	29.540323	20.296912	16.936859
465	1	26.087295	27.271975	7.311740
466	1	12.788008	17.665013	30.055680
467	1	4.538319	29.708092	17.840031
468	1	2.728683	4.848257	25.157396
469	1	19.626620	19.432995	27.363953
470	1	15.350326	4.124693	9.509086
471	1	28.691730	7.439840	9.215671
472	1	27.088954	10.070264	18.274271
473	1	2.428302	5.760167	29.464914
474	1	27.424172	22.475918	7.779724
475	1	17.697132	11.052518	22.406774
476	1	29.572723	30.270875	9.789991
477	1	3.445474	12.137029	5.531441
478	1	20.499982	25.937324	28.540240
479	1	9.123989	21.270821	17.887577
480	1	17.356970	25.742554	19.258605
481	1	14.754938	10.568763	22.157078
482	1	13.254741	3.372587	2.631276
483	1	29.827723	16.823790	12.858573
484	1	24.347493	7.628009	7.197801
485	1	32.014562	28.435966	12.924325
486	1	16.837721	19.914257	18.427637
487	1	6.958182	21.459169	10.600263
488	1	4.998597	23.919623	24.053175
489	1	30.985277	23.193715	1.774643
490	1	28.475971	17.156564	10.725031
491	1	10.740120	12.576319	4.117615
492	1	2.605397	19.929522	28.420503
493	1	4.104666	26.532340	20.840393
494	1	23.345536	8.413606	19.087711
495	1	6.899938	30.834859	8.866852
496	1	5.233608	10.544917	30.816852
497	1	9.591792	2.658093	2.760774
498	1	12.481693	9.837516	12.384079
499	1	10.778248	22.261339	14.366308
500	1	11.991760	23.134597	12.663342
501	1	20.994414	31.856102	12.259000
502	1	4.191359	3.205215	21.500539
503	1	17.419119	16.496504	11.891353
504	1	11.347240	15.016756	5.101311
505	1	29.532812	15.923564	8.741532
506	1	0.321590	13.078184	7.756545
507	1	10.329344	27.364289	16.364946
508	1	2.063586	25.139917	29.960941
509	1	5.789743	18.083454	22.533253
510	1	20.095052	11.534127	17.611709
511	1	4.228213	23.127453	19.593513
512	1	19.529340	6.239221	6.689719
513	1	14.526900	6.672309	11.440269
514	1	16.544448	5.307332	17.346035
515	1	23.503358	19.827087	2.485723
516	1	12.144192	12.192893	13.334216
517	1	26.660197	22.325200	31.509731
518	1	5.438173	31.747400	26.283383
519	1	30.479415	8.411067	32.093730
520	1	20.803755	4.199873	23.363303
521	1	7.132763	20.504442	26.224134
522	1	27.894333	21.776971	18.285657
523	1	3.338772	9.276175	22.959152
524	1	15.410709	6.619057	31.122504
525	1	3.882188	9.742529	27.665912
526	1	23.229636	9.480831	6.833704
527	1	31.566594	26.497527	20.822022
528	1	23.918713	2.543920	29.517149
529	1	17.192139	3.680622	19.212142
530	1	28.772540	5.168091	2.644035
531	1	28.848091	27.982119	27.047931
532	1	2.345581	13.592367	1.878412
533	1	26.297194	9.171056	8.308181
534	1	3.174037	31.525122	27.423476
535	1	6.045472	23.386620	15.108972
536	1	26.929727	28.504779	23.073217
537	1	19.871220	7.577440	1.445991
538	1	23.543125	27.739446	16.053803
539	1	17.289810	10.052049	4.154023
540	1	31.838649	8.619344	25.619523
541	1	3.665786	28.109634	24.689790
542	1	29.473358	7.417181	15.639003
543	1	15.086416	20.317941	28.750828
544	1	22.413681	21.783765	30.729169
545	1	27.423707	19.391977	10.510882
546	1	2.750909	21.121961	-1.146622
547	1	2.694260	22.927935	23.026972
548	1	25.189977	18.651203	19.603076
549	1	21.041846	12.006882	28.204627
550	1	16.335378	24.808365	16.025611
551	1	8.575064	18.718518	30.677964
552	1	26.280072	21.125177	20.042471
553	1	5.655266	13.932673	21.464059
554	1	6.665353	7.954091	17.804034
555	1	6.946686	2.431855	3.172333
556	1	29.704380	19.695447	27.944602
557	1	6.320679	9.001680	23.919420
558	1	2.704037	8.535006	25.688374
559	1	10.037208	31.509346	17.092066
560	1	20.351006	14.389153	19.883008
561	1	25.657788	31.071383	3.997128
562	1	4.912970	30.799539	20.012101
563	1	1.897222	26.622625	4.906451
564	1	27.497077	29.011100	6.337827
565	1	13.443481	15.972001	2.105656
566	1	9.163154	26.659794	2.634247
567	1	31.027975	13.832906	4.409518
568	1	12.230677	30.264404	13.275805
569	1	5.748943	27.809931	32.029594
570	1	24.991169	10.063124	27.256012
571	1	30.843786	21.562509	29.489759
572	1	29.364756	17.626703	17.020048
573	1	22.601652	15.107135	20.384287
574	1	10.698126	1.019602	28.646754
575	1	29.511429	26.247911	16.877088
576	1	22.615801	20.325327	16.635261
577	1	13.058118	20.140967	7.118790
578	1	17.449000	25.472673	8.112667
579	1	27.986329	2.948658	10.120216
580	1	2.913088	31.484902	11.029738
581	1	21.605055	18.715810	11.798761
582	1	15.430975	1.225318	6.492537
583	1	25.161464	23.363269	8.498780
584	1	27.621077	20.968897	25.278553
585	1	1.271401	2.879950	7.882468
586	1	0.834534	5.254549	11.692449
587	1	29.603876	27.249490	12.853538
588	1	6.240870	6.590969	12.624829
589	1	14.148907	2.557267	31.828580
590	1	4.729262	21.005621	14.563949
591	1	31.167606	3.228687	32.084480
592	1	20.071037	10.679930	26.188842
593	1	30.629513	5.737280	4.939868
594	1	21.880919	0.705217	9.963628
595	1	0.956784	3.200829	26.183682
596	1	3.796147	11.678278	0.906034
597	1	3.819834	14.845871	9.212825
598	1	26.251455	25.644189	19.538839
599	1	7.371239	30.183414	27.082659
600	1	23.058547	21.920383	1.449269
601	1	17.973098	6.448020	22.227233
602	1	4.283898	16.167374	21.777953
603	1	20.006291	3.072907	16.073061
604	1	2.461812	8.996656	10.230328
605	1	27.373238	15.641576	12.541194
606	1	14.783764	13.479443	30.608829
607	1	10.262204	4.171964	26.663563
608	1	26.427109	18.970818	5.738395
609	1	9.666946	9.641891	0.881084
610	1	25.573906	8.812173	14.328528
611	1	6.355078	32.000136	11.029607
612	1	23.308395	17.527789	1.698331
613	1	22.367945	12.600755	20.622049
614	1	21.657101	29.042210	15.273536
615	1	13.189154	16.626951	19.063512
616	1	11.951450	31.483754	21.986657
617	1	30.200369	12.882396	24.770120
618	1	23.863868	11.211517	4.939621
619	1	17.783440	22.731898	15.275364
620	1	22.321561	6.453654	8.411633
621	1	4.605281	31.702623	8.912143
622	1	20.349080	4.023342	13.679558
623	1	21.488866	15.417714	5.185679
624	1	5.943950	6.421993	2.013266
625	1	2.576924	17.538354	5.942677
626	1	26.282234	13.672139	27.328111
627	1	8.178123	22.559342	1.069005
628	1	23.727497	25.589428	4.116395
629	1	24.181080	19.973421	4.753149
630	1	31.206768	11.763981	9.614294
631	1	30.932132	16.112439	15.280149
632	1	28.685459	8.728066	6.976343
633	1	21.187862	21.157450	28.555524
634	1	17.755954	10.358832	8.426152
635	1	12.178463	15.181815	20.785610
636	1	20.496526	15.168029	25.414676
637	1	14.995318	9.252643	7.799951
638	1	6.998400	28.370736	9.209942
639	1	18.060321	6.105954	2.583161
640	1	24.568517	16.988466	8.612320
641	1	6.446943	0.549433	30.598861
642	1	10.522005	8.209594	13.017018
643	1	8.771062	31.539525	7.290781
644	1	8.124061	11.732123	20.532942
645	1	14.280822	11.635874	26.361579
646	1	22.485619	21.665483	23.376205
647	1	14.242900	22.566295	11.858105
648	1	2.138499	18.361070	26.609253
649	1	5.749562	16.490975	28.319423
650	1	27.076910	6.022426	0.523568
651	1	23.740583	8.670715	4.337367
652	1	4.410372	16.295420	17.304226
653	1	21.977267	29.240040	17.843121
654	1	22.290264	19.385306	27.120951
655	1	16.381213	21.350946	24.591340
656	1	4.569818	23.780179	1.393160
657	1	25.981419	17.301392	14.150840
658	1	16.623803	14.139208	14.098576
659	1	1.615324	11.800758	16.394174
660	1	26.635312	4.419706	5.571947
661	1	31.116253	14.233028	22.695585
662	1	3.226810	30.693560	6.331862
663	1	16.241900	16.692342	26.762844
664	1	18.124801	26.505953	6.001555
665	1	1.606991	20.355466	1.086970
666	1	3.884497	13.398602	23.154019
667	1	2.421604	1.446677	5.897188
668	1	9.658280	30.398337	22.521840
669	1	11.387990	22.386794	19.307758
670	1	9.833962	13.331708	13.993114
671	1	17.053162	29.775792	29.562311
672	1	29.320993	12.410612	16.043277
673	1	26.820816	0.770198	9.356433
674	1	27.765557	5.777402	20.337819
675	1	21.765520	23.779593	32.163167
676	1	14.031967	28.407586	12.658055
677	1	5.356001	30.984499	28.832467
678	1	15.035833	18.820096	30.890056
679	1	26.650170	7.578614	18.323129
680	1	14.652022	17.626936	25.028005
681	1	8.871098	8.341699	19.192066
682	1	2.896134	29.211499	4.158875
683	1	30.444813	5.041772	26.700113
684	1	3.530269	17.133910	15.047248
685	1	17.289731	29.794409	22.345487
686	1	8.773014	0.332572	12.540342
687	1	31.945862	1.015124	18.480799
688	1	21.272940	23.287630	2.905162
689	1	18.521805	12.557881	12.556086
690	1	13.232927	0.775080	14.560374
691	1	30.702667	6.427630	10.573177
692	1	24.098417	22.055175	12.076589
693	1	31.460474	13.377830	17.259458
694	1	15.289220	31.837588	26.262128
695	1	10.789798	22.779088	16.782820
696	1	5.777226	30.666204	15.574979
697	1	0.355590	17.728887	12.789000
698	1	22.844463	30.090003	23.325848
699	1	9.226230	29.727351	8.875771
700	1	6.594036	20.135727	23.680469
701	1	27.618892	30.719527	11.631491
702	1	12.389232	17.137520	4.058997
703	1	21.455587	4.196003	6.991576
704	1	30.009151	17.660948	23.614065
705	1	16.767027	10.936772	11.230329
706	1	22.775117	30.964984	14.032648
707	1	25.263982	27.046177	27.056111
708	1	3.253106	29.579908	29.246535
709	1	1.203069	19.268017	21.388422
710	1	5.887443	14.288738	26.788071
711	1	3.886535	24.336461	28.160839
712	1	20.033392	30.923390	14.400505
713	1	3.948393	2.471677	8.109374
714	1	0.522829	21.659644	24.396573
715	1	1.605915	23.165872	9.768472
716	1	5.312019	28.178104	29.624348
717	1	23.726740	25.418247	19.800410
718	1	5.498002	6.130422	10.166348
719	1	21.674105	20.728516	3.789118
720	1	6.756164	21.121401	5.046523
721	1	18.256581	24.450061	27.826630
722	1	9.934992	15.383196	7.188009
723	1	4.951797	16.707401	5.915396
724	1	18.461222	21.370866	17.210310
725	1	2.539799	7.946654	14.596464
726	1	21.219360	24.321874	15.840986
727	1	7.928823	31.333182	0.659846
728	1	14.236974	29.479505	26.579901
729	1	31.152069	30.503816	19.116692
730	1	30.195731	9.050320	13.808720
731	1	28.840211	18.065449	21.286654
732	1	1.543022	15.577223	15.921729
733	1	24.735389	2.867701	22.566303
734	1	6.726173	27.836636	11.917637
735	1	22.257472	10.348962	17.230800
736	1	26.606632	1.144303	11.950999
737	1	26.769987	8.309951	10.705853
738	1	11.937751	22.147600	8.331398
739	1	25.998607	10.659681	10.390120
740	1	16.955952	2.752498	4.713506
741	1	11.784970	16.351537	32.023489
742	1	25.047033	5.271916	23.010987
743	1	31.374392	29.024310	26.687908
744	1	4.912833	5.732374	21.523251
745	1	7.445541	16.007614	6.592692
746	1	19.885562	17.085603	15.745284
747	1	27.919204	13.945651	19.750492
748	1	15.519541	20.880607	6.608091
749	1	8.507112	22.709530	6.018403
750	1	10.128233	11.807362	22.422868
751	1	11.900752	29.235959	31.197227
752	1	16.436679	7.550533	3.955973
753	1	27.140000	26.216671	1.602714
754	1	11.016556	4.203029	17.246715
755	1	28.877980	0.495504	8.290152
756	1	21.724784	27.904290	10.679839
757	1	0.523962	3.730211	5.395327
758	1	18.736243	12.680704	27.139989
759	1	6.035882	22.872954	31.493052
760	1	12.168136	24.817012	24.508437
761	1	2.635535	20.593678	23.214994
762	1	3.686257	18.128301	1.522764
763	1	28.240247	26.938099	14.961596
764	1	10.112916	27.326382	13.734090
765	1	30.208077	11.480447	13.847072
766	1	27.193321	13.839385	2.162667
767	1	11.671342	29.282984	20.948533
768	1	12.596681	30.825958	16.125763
769	1	15.428807	21.271110	31.285246
770	1	10.949270	4.741762	24.270738
771	1	14.671290	26.488942	31.104513
772	1	28.383284	7.688914	1.557189
773	1	31.259288	0.318226	8.878838
774	1	6.605819	22.081146	7.943114
775	1	31.443661	22.132649	5.820419
776	1	29.853606	2.915071	2.188895
777	1	25.236234	12.088334	29.214101
778	1	8.449064	23.550983	14.281175
779	1	17.683003	29.570533	14.153517
780	1	12.582384	25.093221	31.951654
781	1	21.251917	14.781358	15.630367
782	1	19.062880	-0.385055	23.565757
783	1	1.237707	3.366579	17.640724
784	1	17.725485	3.785295	2.675699
785	1	15.762357	4.497475	15.240616
786	1	10.067465	27.883085	22.435376
787	1	10.938896	26.948356	24.774332
788	1	26.351905	27.102719	9.934422
789	1	12.983704	13.072423	15.806760
790	1	17.121495	17.269605	31.316604
791	1	17.251840	8.714876	17.625349
792	1	26.551095	11.557777	1.494975
793	1	5.597735	25.058823	3.758107
794	1	23.116690	28.016731	3.968109
795	1	21.515501	28.039342	24.714406
796	1	24.402695	26.679520	2.071732
797	1	23.690511	8.636350	1.653958
798	1	14.410515	32.047478	12.299634
799	1	1.632335	18.106182	8.683701
800	1	12.902163	21.688995	17.346813
801	1	28.071145	15.552348	26.926707
802	1	23.511359	21.355043	8.905667
803	1	23.749517	31.893907	5.775854
804	1	19.969828	17.298415	4.224424
805	1	9.036538	18.330964	25.338068
806	1	31.781422	27.710983	1.249021
807	1	0.325803	5.221014	21.432867
808	1	2.866778	12.030832	13.357744
809	1	28.428775	14.370907	4.374727
810	1	15.290875	25.005419	5.497080
811	1	1.213986	8.197396	7.384922
812	1	26.411712	1.139840	23.173366
813	1	27.910265	30.876435	23.962585
814	1	13.155131	4.242581	8.125234
815	1	20.406162	16.346477	21.401517
816	1	30.022426	22.325212	12.065591
817	1	14.128645	7.463011	25.009349
818	1	8.619712	3.375979	9.306001
819	1	10.202432	13.570413	20.602708
820	1	6.497584	9.586634	19.830977
821	1	9.946564	20.249844	13.317528
822	1	16.302983	11.676500	13.595717
823	1	27.404151	16.689971	5.175295
824	1	28.852200	18.385321	6.245382
825	1	21.871089	31.344247	16.357782
826	1	10.474357	25.411877	22.333438
827	1	24.920581	15.493056	23.824379
828	1	31.906756	23.532824	26.156205
829	1	13.075617	11.161017	3.691461