ITEM: TIMESTEP
0
ITEM: NUMBER OF ATOMS
2000
ITEM: BOX BOUNDS pp pp pp
0.299875	32.130125
0.299875	32.130125
0.299875	32.130125
ITEM: ATOMS id type x y z
1	1	8.075301	21.771002	22.158530
2	1	25.707928	0.664826	28.740037
3	1	19.929934	11.654544	8.389019
4	1	16.145216	26.446285	11.919248
5	1	23.428581	19.819689	24.676940
6	1	3.814737	19.133392	21.337824
7	1	22.817534	23.684886	25.422271
8	1	9.603223	18.583457	18.011663
9	1	15.059240	17.007951	17.024770
10	1	21.789554	3.694007	31.138306
11	1	19.490552	18.764541	8.039167
12	1	6.580656	4.750494	31.821976
13	1	22.358251	11.946104	24.178177
14	1	4.069055	6.549123	5.486666
15	1	3.427957	30.680765	25.079372
16	1	26.008841	19.606345	24.079989
17	1	7.368620	26.499276	30.377151
18	1	15.535739	29.577112	6.343991
19	1	27.911322	18.327189	12.932691
20	1	2.979926	24.694434	8.582767
21	1	31.709288	15.292590	12.536576
22	1	23.548441	28.634022	13.434733
23	1	8.847415	29.345869	17.432782
24	1	20.573244	31.535345	18.502456
25	1	16.632172	29.346584	16.591418
26	1	23.219526	17.290769	28.146417
27	1	30.328412	28.668819	5.165293
28	1	24.312934	26.316636	14.221526
29	1	9.087925	29.011624	20.137968
30	1	17.977222	26.907441	16.299860
31	1	27.910602	2.998437	12.649805
32	1	25.703434	1.326065	31.269326
33	1	21.311268	3.784389	19.333055
34	1	26.183379	20.545551	3.530281
35	1	24.787929	13.027727	24.477993
36	1	5.868961	0.640760	1.559665
37	1	22.021425	18.874238	22.976109
38	1	18.125118	31.816155	1.108375
39	1	25.524308	17.538339	25.544655
40	1	23.650081	18.372379	17.702305
41	1	28.897349	0.587908	21.994809
42	1	17.273502	18.721574	6.749398
43	1	8.435647	26.567059	23.749235
44	1	24.253456	21.450525	14.887488
45	1	22.762581	16.153502	22.769276
46	1	16.252506	27.421125	4.866022
47	1	21.506804	19.223204	18.787824
48	1	16.957642	15.018363	16.492629
49	1	21.543438	9.549870	0.714182
50	1	25.096283	10.274891	2.886702
51	1	10.982449	28.204132	3.641555
52	1	1.381193	7.399996	19.430314
53	1	5.525268	8.376955	26.109847
54	1	5.931228	3.717974	9.685561
55	1	12.390460	16.372695	25.377743
56	1	26.273725	1.739286	20.678646
57	1	15.116891	14.349973	9.022176
58	1	18.776878	15.206826	23.598716
59	1	11.132121	22.350199	25.656378
60	1	21.071789	18.402069	2.203772
61	1	11.587660	17.609154	6.564243
62	1	9.150419	9.059327	15.063088
63	1	13.790806	28.233913	24.507193
64	1	5.139911	4.469725	19.385441
65	1	8.679143	13.287682	2.318053
66	1	24.593024	25.635789	8.755281
67	1	25.086648	6.504166	5.066459
68	1	30.055600	25.698573	8.414593
69	1	25.454159	31.153944	10.854254
70	1	19.052669	3.556123	11.344583
71	1	22.198291	25.473508	21.633834
72	1	4.608592	14.100732	1.195162
73	1	22.224740	2.375683	22.513937
74	1	2.310921	21.548651	14.370065
75	1	30.558179	2.871458	22.178978
76	1	24.008200	18.526295	6.745414
77	1	23.441000	8.456667	31.030239
78	1	23.075190	22.727400	16.948077
79	1	12.117476	24.429608	20.585498
80	1	1.005883	28.598267	15.419944
81	1	7.278506	19.567477	18.377217
82	1	0.800059	20.126507	30.330234
83	1	24.152338	11.277572	19.012979
84	1	10.548622	30.241336	10.974121
85	1	28.886280	30.629928	19.757930
86	1	13.034656	13.499060	2.985884
87	1	30.665265	6.965673	2.707171
88	1	23.373509	4.193115	1.723083
89	1	15.828640	17.660266	29.042719
90	1	14.425072	2.347347	4.651228
91	1	2.797416	3.247980	30.149605
92	1	0.811413	28.830919	20.053880
93	1	14.747437	15.690105	21.051516
94	1	7.920148	30.045779	11.016235
95	1	19.313026	14.638681	11.518196
96	1	1.279467	19.111702	11.082456
97	1	6.044367	18.607204	30.004275
98	1	10.062321	5.441228	9.985035
99	1	6.364409	30.069447	2.284937
100	1	19.480225	17.736764	13.061407
101	1	19.191823	11.822803	31.911353
102	1	21.310019	16.865426	31.955328
103	1	7.947637	18.975180	3.637211
104	1	7.080553	16.415137	26.140364
105	1	6.935346	25.069828	25.114755
106	1	20.019867	18.881936	21.428305
107	1	25.524663	4.127378	20.519877
108	1	22.551061	20.870809	13.177598
109	1	5.532852	23.472647	26.418219
110	1	4.851622	20.800219	12.011251
111	1	16.328667	3.393321	28.142135
112	1	13.506383	4.064480	24.793368
113	1	20.298580	1.579655	0.439437
114	1	19.994363	5.459045	30.404638
115	1	7.153624	11.851383	29.948787
116	1	10.612156	17.255829	23.638225
117	1	6.570697	7.810792	8.867155
118	1	20.830937	17.180240	27.165821
119	1	5.253519	29.329098	7.691359
120	1	30.292110	20.243979	7.211168
121	1	20.150792	8.644494	13.039078
122	1	23.315204	30.345547	3.510409
123	1	1.211750	15.607327	8.379206
124	1	2.963593	29.459979	8.411085
125	1	8.306467	16.208300	23.834367
126	1	1.022230	4.759747	31.486933
127	1	9.632424	4.548652	22.393876
128	1	0.634125	8.693491	3.176844
129	1	3.266248	0.430028	29.983495
130	1	23.580016	4.585289	18.800946
131	1	28.757259	5.323018	6.611671
132	1	19.531587	29.516873	19.568559
133	1	31.932635	4.599215	9.436977
134	1	3.648453	11.222240	10.819195
135	1	17.347638	5.163730	26.329720
136	1	2.162562	3.548610	15.315412
137	1	6.932275	15.769853	12.002272
138	1	12.071172	9.864886	31.654483
139	1	13.950354	0.720546	22.243055
140	1	26.797659	12.606752	9.402275
141	1	16.604639	4.640044	0.498086
142	1	31.998465	7.743331	15.164667
143	1	1.900238	26.544451	16.688524
144	1	27.443581	9.679805	2.957819
145	1	9.405457	24.115850	2.608082
146	1	6.684193	27.408990	2.844255
147	1	13.799331	18.288963	20.754610
148	1	6.217027	13.859219	9.937086
149	1	16.245834	6.121010	13.300135
150	1	16.745768	29.734716	27.102834
151	1	27.950466	7.581422	13.614629
152	1	7.464159	8.897735	13.248849
153	1	21.122895	11.056282	30.562250
154	1	29.045140	29.712728	21.998011
155	1	24.637246	15.563511	12.843901
156	1	6.524388	21.435792	16.643707
157	1	8.830798	26.179006	26.235594
158	1	21.109336	5.745088	3.027689
159	1	28.281960	12.855880	32.056673
160	1	27.888760	16.237823	2.722725
161	1	31.796805	18.733467	16.828526
162	1	31.452808	1.496751	4.398945
163	1	28.046413	21.162360	12.410452
164	1	10.333885	29.568361	15.331966
165	1	3.658854	23.231526	30.723834
166	1	4.330675	28.694572	2.094555
167	1	22.078436	9.880050	11.668515
168	1	19.166238	4.613265	18.001232
169	1	11.972006	17.904969	17.442997
170	1	6.369558	26.076617	16.524922
171	1	27.982172	29.758435	31.252741
172	1	14.344325	11.546113	11.862898
173	1	8.423280	15.246152	14.040802
174	1	3.123686	24.856052	3.200731
175	1	8.996303	5.892466	25.340260
176	1	27.067690	24.268702	23.083847
177	1	14.413835	15.361213	28.648903
178	1	21.940096	15.793134	29.744498
179	1	25.403334	11.304339	14.492573
180	1	21.815500	24.666025	4.972535
181	1	25.847376	7.691758	2.969882
182	1	16.314561	10.963369	6.428105
183	1	29.662638	25.230947	1.372537
184	1	23.112249	10.655622	29.098131
185	1	20.364736	26.609253	22.776722
186	1	4.257089	12.922847	3.345943
187	1	4.290124	16.452156	26.242021
188	1	5.854074	12.868233	24.578124
189	1	2.367538	27.264340	2.356819
190	1	9.313968	6.048770	27.854777
191	1	12.982508	7.605526	6.259148
192	1	26.852501	16.578612	20.132815
193	1	9.874375	10.264572	7.686099
194	1	17.533907	7.131542	16.615662
195	1	17.089858	14.557792	5.458226
196	1	31.248694	10.848541	4.193794
197	1	14.929080	30.847624	28.754954
198	1	26.715865	2.843888	29.501802
199	1	19.274401	9.153742	18.759393
200	1	24.460247	17.962764	23.054108
201	1	12.211255	15.607427	27.706644
202	1	16.323826	25.260183	29.473619
203	1	26.642246	31.939133	16.447171
204	1	17.987242	29.581896	9.688217
205	1	9.201228	0.305878	30.507960
206	1	16.336541	1.692489	8.699395
207	1	30.714226	0.604328	28.756334
208	1	17.581979	15.338748	9.497392
209	1	5.846609	11.927955	16.192773
210	1	21.490864	11.993028	15.522549
211	1	28.719629	25.930134	10.697857
212	1	23.756675	15.588589	3.754849
213	1	9.078046	17.686488	7.624945
214	1	14.121980	23.787001	3.521117
215	1	1.872541	26.776172	19.312137
216	1	10.576128	25.167512	17.689001
217	1	16.687723	22.268378	11.054387
218	1	17.803395	3.414499	9.313729
219	1	17.713041	11.119240	17.579195
220	1	6.526891	18.241804	25.050168
221	1	19.800582	21.918465	21.063146
222	1	17.063884	27.487214	30.735723
223	1	29.394274	8.214713	11.504348
224	1	29.538116	21.371805	3.056760
225	1	25.140314	25.927212	29.479084
226	1	7.178841	26.105697	9.565309
227	1	17.439848	31.654155	15.400101
228	1	7.005938	20.621627	31.587534
229	1	15.014106	3.010079	17.688543
230	1	1.653019	13.740754	12.218833
231	1	8.202894	30.561557	4.814362
232	1	31.892800	12.721950	2.465401
233	1	2.927349	0.605028	0.984630
234	1	6.520122	1.353238	16.229011
235	1	15.204787	3.049408	23.044552
236	1	13.387113	17.751787	8.205656
237	1	17.953245	31.543478	17.977317
238	1	2.916433	15.679746	24.010846
239	1	6.173278	7.707696	6.523431
240	1	1.480261	22.622049	18.657929
241	1	19.155372	21.923096	10.710686
242	1	18.778312	21.764962	27.849121
243	1	14.115274	9.322463	10.380557
244	1	2.443229	11.567039	22.290247
245	1	31.200613	1.298558	12.962125
246	1	7.945872	24.486344	7.625762
247	1	14.653000	15.101359	15.402856
248	1	10.524042	13.264143	11.654350
249	1	25.810162	23.599066	29.441539
250	1	24.901547	16.097562	21.434463
251	1	12.787489	10.825838	17.288600
252	1	14.849564	15.783020	12.906041
253	1	21.467325	9.686731	4.912438
254	1	10.709687	9.087371	17.339794
255	1	2.650752	5.088607	22.709167
256	1	12.876492	25.284575	5.473457
257	1	14.022753	25.660311	15.465442
258	1	21.006251	25.952753	31.202471
259	1	4.455878	27.989338	15.764773
260	1	6.129959	29.858396	24.520485
261	1	9.690188	29.689060	31.524994
262	1	10.457557	13.812767	28.143186
263	1	21.770396	21.270093	10.719966
264	1	9.974111	8.165953	3.026848
265	1	5.531452	24.589280	8.245628
266	1	2.035414	16.264186	30.557309
267	1	2.221449	22.867382	2.103933
268	1	29.815776	5.560275	22.375385
269	1	5.139763	12.009092	28.218243
270	1	5.627861	14.351639	17.272118
271	1	12.586706	20.452334	20.744585
272	1	16.761861	9.931031	15.359367
273	1	11.814002	5.226013	28.518029
274	1	9.778394	20.272830	26.923095
275	1	4.204586	0.953411	15.331445
276	1	25.996597	4.592316	13.741471
277	1	24.925665	25.270029	24.791399
278	1	2.387732	17.598093	17.198181
279	1	27.346315	29.798526	15.782227
280	1	7.754447	10.224682	11.140972
281	1	8.673761	12.038338	32.068158
282	1	26.587253	18.982451	21.557535
283	1	27.321177	14.968335	9.957506
284	1	18.340098	25.360962	23.303879
285	1	19.723342	7.061563	17.138602
286	1	2.311519	3.089401	1.137597
287	1	30.938931	1.823978	6.856115
288	1	29.494182	14.867457	11.176482
289	1	29.645329	2.629064	14.598878
290	1	7.000137	1.924263	22.503021
291	1	5.873963	2.525307	5.542183
292	1	6.241650	31.454518	6.442016
293	1	1.713170	2.541424	3.626855
294	1	29.840187	9.223188	2.824937
295	1	9.939914	12.736314	24.950355
296	1	23.230605	14.376954	31.858034
297	1	17.427510	14.431097	25.913425
298	1	18.897205	8.704810	26.963844
299	1	18.544127	7.622181	9.162071
300	1	13.318455	27.409351	1.125175
301	1	6.140945	2.102954	25.753727
302	1	4.926702	4.206639	26.495411
303	1	8.115351	15.298862	27.981068
304	1	8.009802	6.202755	6.084624
305	1	2.645077	15.991808	1.126851
306	1	4.029233	25.183700	15.797501
307	1	1.167075	23.947496	4.622828
308	1	10.874325	18.629653	31.541777
309	1	1.233965	11.900206	0.354124
310	1	3.034081	25.374398	23.471801
311	1	27.597629	11.303202	7.107171
312	1	2.274435	15.711477	13.528730
313	1	10.683762	30.781332	3.785904
314	1	17.558196	29.594011	31.928567
315	1	21.837490	11.408882	6.598711
316	1	13.658498	11.178720	6.600538
317	1	4.363269	31.393757	12.976642
318	1	14.628278	11.936233	18.852978
319	1	13.103496	19.201852	10.155715
320	1	23.180027	31.870655	18.606156
321	1	26.947644	21.569826	22.547791
322	1	29.228463	16.573850	19.339416
323	1	29.008468	4.514538	24.551772
324	1	12.891422	29.322477	28.683981
325	1	12.043308	1.644010	20.210731
326	1	1.311366	6.806648	9.712483
327	1	12.129882	8.961470	24.822273
328	1	28.563513	27.739171	8.600827
329	1	19.295060	14.911665	4.174291
330	1	29.155663	8.639773	17.952931
331	1	7.183943	23.123053	3.451607
332	1	4.662771	10.320258	3.161376
333	1	10.908237	17.857016	27.184871
334	1	1.850476	30.174684	21.771444
335	1	7.546110	28.693532	22.685617
336	1	29.020920	15.562553	6.507324
337	1	12.367618	2.651387	29.685006
338	1	20.649045	11.307170	22.297850
339	1	7.674482	29.234259	6.861384
340	1	25.895447	24.551990	10.766639
341	1	10.934965	14.103312	9.334951
342	1	24.379897	1.362555	10.085340
343	1	29.438565	0.608625	2.988834
344	1	17.492757	17.914627	9.344295
345	1	11.447915	20.572268	1.630392
346	1	7.436167	16.487111	30.210804
347	1	27.441564	20.107866	27.729156
348	1	28.337926	16.615588	14.960220
349	1	7.025054	2.871356	29.895380
350	1	16.881148	31.695075	12.738736
351	1	22.641727	7.891536	21.531753
352	1	1.862356	30.749023	31.312264
353	1	8.163308	16.060300	2.516307
354	1	22.494964	10.307431	26.442874
355	1	17.881527	2.295336	0.485102
356	1	20.912895	13.418844	13.488636
357	1	17.731398	8.629767	2.060388
358	1	21.629427	12.314947	1.270658
359	1	15.990429	29.775627	24.634214
360	1	2.846349	3.989385	27.658447
361	1	10.671505	26.543409	5.371032
362	1	25.431208	2.566665	27.196924
363	1	24.627890	9.855737	12.315424
364	1	17.347062	25.690085	25.588740
365	1	27.795572	25.246465	3.893165
366	1	28.777474	10.197605	4.991833
367	1	28.397451	19.612402	23.267575
368	1	27.595799	20.566192	1.290357
369	1	2.509638	2.001363	19.471794
370	1	27.654409	3.418266	19.088435
371	1	25.172394	24.429332	27.007600
372	1	6.467272	9.513522	15.542646
373	1	29.203963	0.637338	5.532413
374	1	25.655353	24.655139	0.408365
375	1	19.297308	16.340379	30.582574
376	1	27.968955	1.528298	27.583264
377	1	5.723717	18.740276	13.771740
378	1	7.301463	2.404181	11.373423
379	1	3.119347	0.442368	21.385951
380	1	11.799113	4.904243	30.955306
381	1	16.841464	27.199821	9.728410
382	1	5.684856	15.195198	7.880406
383	1	3.362805	28.773339	19.990550
384	1	20.597986	6.538154	22.183684
385	1	30.637315	24.238383	21.017739
386	1	25.616193	28.793291	11.737538
387	1	15.180565	5.188468	19.364141
388	1	22.586516	25.932031	24.060003
389	1	6.792368	30.359303	13.057019
390	1	29.333626	4.859053	9.055154
391	1	18.075345	23.184962	8.735892
392	1	21.276224	8.047551	26.168336
393	1	14.029987	25.673105	19.876663
394	1	26.198935	25.314562	15.186541
395	1	16.718390	1.272111	19.086240
396	1	21.060822	5.102376	11.637524
397	1	4.180071	27.340293	11.882349
398	1	6.466610	3.919277	16.002723
399	1	20.726126	4.609795	25.692078
400	1	21.079352	29.273070	12.762529
401	1	23.035762	11.732156	13.036698
402	1	29.850539	29.870163	12.388194
403	1	18.272040	12.561120	10.045903
404	1	13.696436	3.018242	15.551980
405	1	21.714771	28.414497	7.700020
406	1	16.037049	16.437085	1.772423
407	1	3.610997	13.859104	25.646113
408	1	17.389851	3.914656	13.153537
409	1	26.854189	11.149756	30.817050
410	1	9.414797	4.682144	32.008127
411	1	8.299620	17.593483	19.908197
412	1	4.517234	16.807019	12.602764
413	1	16.445838	2.789150	30.456154
414	1	10.620893	23.924091	4.864002
415	1	0.655416	15.439331	2.754447
416	1	20.962019	25.699744	11.120172
417	1	24.087911	11.894603	16.499258
418	1	7.852865	19.790548	8.644890
419	1	15.349863	7.506950	18.354937
420	1	22.822264	14.408216	24.815406
421	1	14.670155	25.129657	1.505667
422	1	9.696066	31.149777	26.709952
423	1	24.654462	14.486143	17.117923
424	1	31.359486	7.399870	17.470513
425	1	28.117684	28.370296	11.053502
426	1	23.906586	30.523793	25.690242
427	1	27.672075	12.227381	14.172800
428	1	22.970172	28.541985	26.794577
429	1	18.661676	13.122557	29.714301
430	1	30.546516	16.658715	1.633839
431	1	30.722594	19.475367	4.870871
432	1	31.790754	21.970695	8.313601
433	1	23.717851	31.909901	30.063654
434	1	21.699475	15.007986	10.350285
435	1	5.032788	13.028384	30.835445
436	1	29.381566	24.773478	24.432314
437	1	30.524544	12.384817	0.328875
438	1	15.248305	19.106052	8.502214
439	1	25.345935	9.380599	19.877803
440	1	11.636793	5.719601	21.278353
441	1	30.336261	9.649155	29.595576
442	1	24.954875	16.401182	6.045365
443	1	4.464646	25.900378	25.774742
444	1	31.078530	17.962359	26.306181
445	1	31.649429	19.599130	9.097588
446	1	13.621907	24.558973	7.876957
447	1	22.229922	19.346817	31.994599
448	1	19.689243	1.955244	22.288041
449	1	25.424130	23.208815	16.088126
450	1	5.136130	4.372627	12.044151
451	1	2.475887	19.617535	15.905726
452	1	23.527832	20.723619	19.185533
453	1	23.981011	19.698632	11.050129
454	1	12.350736	14.809136	30.084019
455	1	30.433839	2.589978	9.160850
456	1	12.741185	4.176468	19.430831
457	1	13.833223	8.321071	0.674702
458	1	8.361871	6.467529	3.429879
459	1	11.160151	17.908383	13.603665
460	1	32.060050	21.400099	10.802314
461	1	15.918962	31.743995	20.859365
462	1	11.844919	22.538390	3.413873
463	1	2.842664	24.623758	18.127730
464	1	29.526457	20.301735	16.935541
465	1	26.054843	27.267583	7.301815
466	1	12.769642	17.657907	30.069569
467	1	4.556532	29.744624	17.804037
468	1	2.728047	4.856594	25.176452
469	1	19.623932	19.425820	27.377047
470	1	15.353756	4.105790	9.551160
471	1	28.706976	7.427547	9.207321
472	1	27.125893	10.082842	18.277570
473	1	2.415981	5.756268	29.490421
474	1	27.452338	22.474046	7.844208
475	1	17.717577	11.074149	22.417067
476	1	29.533051	30.254545	9.817174
477	1	3.438642	12.082211	5.534916
478	1	20.532596	25.933785	28.547936
479	1	9.132952	21.280085	17.892602
480	1	17.385826	25.739714	19.247632
481	1	14.730485	10.581627	22.165828
482	1	13.161964	3.585044	2.887614
483	1	29.837629	16.788116	12.862413
484	1	24.340128	7.618061	7.207637
485	1	31.984180	28.413779	12.922637
486	1	16.827149	19.919485	18.473629
487	1	6.977987	21.438637	10.598773
488	1	4.978146	23.933821	24.013790
489	1	30.974094	23.164794	1.767490
490	1	28.487683	17.125431	10.717693
491	1	10.740356	12.588652	4.118265
492	1	2.584434	19.952898	28.401962
493	1	4.106331	26.531228	20.788937
494	1	23.360378	8.438273	19.098579
495	1	6.909441	30.838792	8.847408
496	1	5.224461	10.544883	30.827646
497	1	9.649804	2.357675	2.737611
498	1	12.499209	9.822072	12.406672
499	1	10.793425	22.253150	14.367693
500	1	12.003346	23.125376	12.663595
501	1	20.973247	31.879112	12.241871
502	1	4.187868	3.225071	21.515847
503	1	17.424086	16.488594	11.907607
504	1	11.344044	15.003036	5.104577
505	1	29.544988	15.887741	8.738402
506	1	0.325393	13.054033	7.764610
507	1	10.319334	27.356481	16.339295
508	1	2.058690	25.144288	29.959415
509	1	5.780422	18.096527	22.532005
510	1	20.122266	11.534523	17.613912
511	1	4.214808	23.136824	19.561430
512	1	19.542100	6.235765	6.691898
513	1	14.534128	6.670246	11.471192
514	1	16.451476	5.163465	17.347333
515	1	23.571279	19.749018	2.461379
516	1	12.151301	12.189957	13.346320
517	1	26.750342	22.313436	31.449173
518	1	5.449054	31.734031	26.289519
519	1	30.480241	8.407864	32.103243
520	1	20.807895	4.213327	23.359554
521	1	7.079246	20.531452	26.221458
522	1	27.792772	21.816287	18.270189
523	1	3.353971	9.299473	22.956870
524	1	15.384318	6.596652	31.128717
525	1	3.850684	9.748783	27.679732
526	1	23.226681	9.468560	6.838392
527	1	31.591752	26.512942	20.805534
528	1	23.923743	2.557767	29.516966
529	1	17.180062	3.658821	19.218815
530	1	28.773153	5.161741	2.638820
531	1	28.890147	28.062586	27.036045
532	1	2.324378	13.590633	1.871526
533	1	26.289736	9.164516	8.311444
534	1	3.202448	31.530017	27.437740
535	1	6.076050	23.408126	15.091175
536	1	26.948751	28.535236	23.059880
537	1	19.857262	7.559730	1.451527
538	1	23.514130	27.769471	16.065304
539	1	17.276073	10.030070	4.153940
540	1	31.831945	8.739758	25.668084
541	1	3.662931	28.129636	24.659951
542	1	29.482399	7.403296	15.641151
543	1	15.080778	20.345279	28.750032
544	1	24.193267	22.934940	31.237331
545	1	27.449509	19.370457	10.503117
546	1	2.742939	21.146233	-1.138739
547	1	2.644317	22.949967	22.982315
548	1	25.219429	18.648615	19.591548
549	1	21.022597	12.024569	28.248130
550	1	16.335738	24.795022	16.023882
551	1	8.564149	18.718280	30.659721
552	1	26.262639	21.098073	20.058594
553	1	5.640769	13.939968	21.475235
554	1	6.662109	7.956966	17.816735
555	1	6.928799	2.478507	3.140473
556	1	29.741059	19.639500	28.009214
557	1	6.304745	9.012998	23.928197
558	1	2.696262	8.553541	25.711751
559	1	10.020259	31.501408	17.058145
560	1	20.365980	14.459614	19.902124
561	1	25.650240	31.011844	3.989408
562	1	4.942468	30.807428	19.982912
563	1	1.913561	26.578312	4.900081
564	1	27.309126	29.049904	6.290773
565	1	13.439040	15.960939	2.103237
566	1	9.225035	26.588809	2.597395
567	1	31.028894	13.824988	4.404503
568	1	12.220302	30.239345	13.262725
569	1	5.917968	27.940086	32.143580
570	1	24.967024	10.070991	27.260169
571	1	30.941023	21.537307	29.470574
572	1	29.388299	17.635117	17.014787
573	1	22.629104	15.119941	20.413869
574	1	10.658581	0.968186	28.633889
575	1	29.544595	26.391564	17.014582
576	1	22.630155	20.328753	16.653636
577	1	13.071851	20.116445	7.136786
578	1	17.446810	25.456312	8.089105
579	1	27.987728	2.942844	10.129383
580	1	2.842639	31.493057	10.839714
581	1	21.624111	18.717420	11.795082
582	1	15.433057	1.220148	6.505397
583	1	25.173058	23.345936	8.494448
584	1	27.603411	21.072647	25.174590
585	1	1.232306	2.917609	7.977354
586	1	0.838932	5.255204	11.709015
587	1	29.573629	27.234428	12.849682
588	1	6.264184	6.563460	12.641424
589	1	14.158376	2.373193	31.590134
590	1	4.749740	20.998547	14.555979
591	1	31.123076	3.210536	32.100748
592	1	20.063649	10.698736	26.218142
593	1	30.583437	5.753809	4.923662
594	1	21.862403	0.716737	9.950808
595	1	0.965803	3.206124	26.203903
596	1	3.782502	11.669602	0.909478
597	1	3.828275	14.823836	9.201283
598	1	26.232726	25.729871	19.422633
599	1	7.371073	30.163432	26.996886
600	1	23.032007	21.822522	1.446277
601	1	17.969672	6.473476	22.220922
602	1	4.263779	16.188186	21.787005
603	1	19.979964	3.108399	16.062262
604	1	2.483970	8.975110	10.225968
605	1	27.376964	15.626135	12.535740
606	1	14.768319	13.466196	30.616125
607	1	10.243577	4.172205	26.662507
608	1	26.451766	18.981063	5.726773
609	1	9.648764	9.638512	0.897132
610	1	25.577621	8.815769	14.332381
611	1	6.351657	32.012466	10.965480
612	1	23.316534	17.441973	1.716543
613	1	22.367749	12.615070	20.640217
614	1	21.637197	29.056464	15.258533
615	1	13.189115	16.651729	19.071972
616	1	11.954556	31.480705	21.994333
617	1	30.144267	12.975434	24.812584
618	1	23.855031	11.200035	4.946241
619	1	17.796579	22.716755	15.275431
620	1	22.317267	6.449764	8.417569
621	1	4.565099	31.709462	8.684683
622	1	20.287016	4.039121	13.676932
623	1	21.486018	15.390909	5.203042
624	1	5.962293	6.410173	1.979831
625	1	2.581795	17.521038	5.942365
626	1	26.231509	13.501110	27.341032
627	1	8.176341	22.533706	1.071631
628	1	23.722942	25.533754	4.050137
629	1	24.206406	19.966980	4.732724
630	1	31.212515	11.743235	9.621045
631	1	30.907301	16.021188	15.298575
632	1	28.676566	8.713342	6.972258
633	1	21.205271	21.105916	28.516422
634	1	17.762465	10.352912	8.432781
635	1	12.177817	15.195094	20.793573
636	1	20.482125	15.140474	25.451303
637	1	14.975367	9.202020	7.771656
638	1	7.010610	28.348391	9.194042
639	1	18.053007	6.073817	2.593671
640	1	24.578568	16.975393	8.610802
641	1	6.420899	0.530125	30.558767
642	1	10.532390	8.192909	13.016253
643	1	8.767686	31.519094	7.218657
644	1	8.123835	11.733247	20.534620
645	1	14.272008	11.628810	26.378213
646	1	22.525017	21.696054	23.320809
647	1	14.256008	22.551594	11.858680
648	1	2.096824	18.381389	26.593379
649	1	5.717301	16.489245	28.320804
650	1	27.063464	6.023753	0.543810
651	1	23.732377	8.656787	4.340756
652	1	4.429385	16.296163	17.317124
653	1	21.965275	29.254749	17.824514
654	1	22.333038	19.340684	27.117301
655	1	16.391583	21.351074	24.601316
656	1	4.590840	23.778603	1.374887
657	1	25.995974	17.297549	14.147879
658	1	16.633356	14.149878	14.103636
659	1	1.617748	11.811896	16.392605
660	1	26.641750	4.410630	5.596919
661	1	31.047333	14.311627	22.723354
662	1	3.553210	30.576942	6.132568
663	1	16.227854	16.684809	26.785161
664	1	18.124320	26.463377	5.975301
665	1	1.604548	20.348834	1.094761
666	1	3.857835	13.421393	23.147618
667	1	1.735732	1.587751	5.890694
668	1	9.667454	30.396654	22.517925
669	1	11.405180	22.382190	19.313306
670	1	9.843924	13.315703	13.996297
671	1	17.138718	29.754630	29.533933
672	1	29.353129	12.412244	16.053117
673	1	26.826907	0.750868	9.346030
674	1	27.777052	5.795812	20.348359
675	1	21.787090	23.675669	32.102616
676	1	14.028755	28.389602	12.649131
677	1	5.362317	30.964107	28.818789
678	1	15.011387	18.822893	30.872263
679	1	26.671471	7.591581	18.326015
680	1	14.646409	17.631659	25.052562
681	1	8.865960	8.348881	19.203379
682	1	2.878235	29.078684	4.153089
683	1	30.441010	5.078456	26.730021
684	1	3.528286	17.051976	15.051776
685	1	17.298475	29.795259	22.340566
686	1	8.774665	0.324150	12.515788
687	1	31.962898	1.041295	18.491788
688	1	21.302839	23.244620	2.870569
689	1	18.528433	12.530923	12.544954
690	1	13.236074	0.745314	14.560221
691	1	30.712693	6.428261	10.575777
692	1	24.172771	22.070728	12.109484
693	1	31.494950	13.492263	17.211648
694	1	15.321565	31.834543	26.244510
695	1	10.796437	22.779761	16.784822
696	1	5.777022	30.659577	15.534203
697	1	0.372826	17.703768	12.778899
698	1	22.858221	30.102001	23.306384
699	1	9.225678	29.718166	8.842320
700	1	6.560301	20.149652	23.668558
701	1	27.587364	30.698402	11.645906
702	1	12.386168	17.120631	4.058303
703	1	21.446387	4.185523	6.983513
704	1	30.032090	17.712066	23.599287
705	1	16.767865	10.922877	11.241083
706	1	22.755586	30.993501	14.017118
707	1	25.260026	27.085122	27.035612
708	1	3.294588	29.603572	29.292053
709	1	1.210826	19.300668	21.352556
710	1	5.856779	14.287708	26.782776
711	1	3.887137	24.346870	28.148173
712	1	20.015195	30.940582	14.388796
713	1	3.874382	2.468006	8.231204
714	1	0.488632	21.698637	24.305788
715	1	1.669676	23.125438	9.747953
716	1	5.279307	28.186919	29.706943
717	1	23.699800	25.504023	19.797062
718	1	5.537433	6.098343	10.192452
719	1	21.721816	20.702001	3.760309
720	1	6.771085	21.089692	5.039917
721	1	18.275665	24.441041	27.829605
722	1	9.933543	15.361218	7.184563
723	1	4.951596	16.678638	5.912628
724	1	18.468117	21.343153	17.209764
725	1	2.551162	7.932798	14.605163
726	1	21.257716	24.332582	15.830604
727	1	7.732945	31.038604	0.485712
728	1	14.267727	29.487836	26.570079
729	1	31.159094	30.538632	19.108017
730	1	30.204447	9.031663	13.810938
731	1	28.863575	18.101835	21.268704
732	1	1.502620	15.472132	15.950177
733	1	24.733178	2.878291	22.571243
734	1	6.699607	27.840258	11.856696
735	1	22.284792	10.362599	17.234588
736	1	26.602188	1.149671	11.940337
737	1	26.779385	8.298793	10.699494
738	1	11.948466	22.128283	8.328017
739	1	26.000764	10.651595	10.395919
740	1	16.946392	2.735123	4.710977
741	1	11.767916	16.341459	32.024797
742	1	25.051934	5.282094	23.015854
743	1	31.416999	29.067664	26.696049
744	1	4.910476	5.744678	21.537388
745	1	7.450948	15.982544	6.591846
746	1	19.917250	17.089806	15.742726
747	1	27.921393	13.918112	19.725043
748	1	15.533247	20.855092	6.617472
749	1	8.517248	22.693204	6.005838
750	1	10.118942	11.806178	22.427015
751	1	12.053016	29.529139	31.527018
752	1	16.435558	7.532235	3.963265
753	1	27.211222	26.239838	1.612620
754	1	11.018102	4.192607	17.266365
755	1	28.890066	0.460590	8.251510
756	1	21.724842	27.892856	10.745670
757	1	0.493911	3.807139	5.377953
758	1	18.730463	12.699018	27.156282
759	1	6.021342	22.857467	31.481459
760	1	12.171015	24.813031	24.506354
761	1	2.643020	20.622840	23.197890
762	1	3.670521	18.115680	1.499497
763	1	28.413291	26.371444	14.959078
764	1	10.109566	27.321419	13.712906
765	1	30.199770	11.455085	13.850538
766	1	27.197235	13.830688	2.176329
767	1	11.674542	29.289047	20.944196
768	1	12.585327	30.802905	16.112619
769	1	15.405032	21.286195	31.279275
770	1	10.959886	4.741290	24.279590
771	1	14.716827	26.522169	31.142942
772	1	28.379178	7.699629	1.547916
773	1	31.239551	0.292403	8.854868
774	1	6.616853	22.056611	7.941996
775	1	31.431822	22.121487	5.814462
776	1	29.845149	2.863570	2.236744
777	1	25.171465	12.108862	29.276152
778	1	8.471514	23.542204	14.270658
779	1	17.685702	29.560173	14.135880
780	1	12.612235	25.214961	31.943890
781	1	21.255988	14.768645	15.637474
782	1	19.072779	-0.372380	23.542884
783	1	1.254007	3.381342	17.657308
784	1	17.644660	3.737237	2.634856
785	1	15.733042	4.465203	15.188973
786	1	10.081134	27.883309	22.425557
787	1	10.966862	26.935398	24.763858
788	1	26.316277	27.086290	9.950530
789	1	12.988537	13.081653	15.824058
790	1	17.123177	17.252118	31.310456
791	1	17.240209	8.890798	17.614746
792	1	26.531050	11.553845	1.503346
793	1	5.627387	25.009314	3.724522
794	1	23.112343	27.975817	3.920677
795	1	21.523163	28.052318	24.714012
796	1	24.400539	26.640858	2.015373
797	1	23.675700	8.624562	1.660920
798	1	14.404289	32.004992	12.302775
799	1	1.647768	18.061948	8.670371
800	1	12.907871	21.686036	17.339004
801	1	27.397350	15.771882	26.874767
802	1	23.531054	21.336760	8.884525
803	1	23.723221	31.886860	5.757571
804	1	19.973862	17.258291	4.228152
805	1	9.035164	18.314122	25.345077
806	1	31.819711	27.696675	1.235417
807	1	0.326978	5.240862	21.458174
808	1	2.880036	12.018327	13.365527
809	1	28.432583	14.359940	4.385676
810	1	15.330669	24.971809	5.517343
811	1	1.296414	8.174631	7.410451
812	1	26.417644	1.152284	23.167854
813	1	27.930647	30.897938	23.961479
814	1	13.167700	4.229560	8.192231
815	1	20.424322	16.372568	21.462522
816	1	30.142213	22.164236	11.968316
817	1	14.137678	7.477835	25.005277
818	1	8.622390	3.348309	9.294268
819	1	10.195469	13.576249	20.608919
820	1	6.488523	9.593812	19.840683
821	1	9.970324	20.246593	13.308523
822	1	16.309141	11.685395	13.600706
823	1	27.415323	16.680694	5.177476
824	1	28.865089	18.379929	6.236530
825	1	21.856757	31.367963	16.339481
826	1	10.490160	25.413396	22.329724
827	1	24.930672	15.502879	23.905501
828	1	31.909074	23.564931	26.119213
829	1	13.055376	11.158631	3.685525