ITEM: TIMESTEP
0
ITEM: NUMBER OF ATOMS
2000
ITEM: BOX BOUNDS pp pp pp
0.299875	32.130125
0.299875	32.130125
0.299875	32.130125
ITEM: ATOMS id type x y z
1	1	8.073656	21.767944	22.147063
2	1	25.701499	0.649019	28.738959
3	1	19.939013	11.678491	8.370104
4	1	16.143637	26.471515	11.948699
5	1	23.435000	19.796838	24.709982
6	1	3.802529	19.133746	21.328799
7	1	22.806372	23.688432	25.461332
8	1	9.618469	18.597875	18.026517
9	1	15.049444	16.963010	17.024044
10	1	21.781811	3.686419	31.134307
11	1	19.495845	18.782526	8.067217
12	1	6.586421	4.741664	31.811204
13	1	22.342322	11.913823	24.170030
14	1	4.067075	6.523206	5.479512
15	1	3.429385	30.679400	25.064568
16	1	25.991734	19.586729	24.120910
17	1	7.357394	26.484810	30.376733
18	1	15.524519	29.530381	6.344989
19	1	27.899303	18.362362	12.940443
20	1	2.982778	24.688762	8.584343
21	1	31.696717	15.315842	12.510384
22	1	23.582942	28.707980	13.509630
23	1	8.859590	29.349153	17.436444
24	1	20.576247	31.566554	18.514856
25	1	16.679274	29.377683	16.629262
26	1	23.214195	17.253618	28.139526
27	1	30.330881	28.671551	5.160783
28	1	25.091605	25.826753	14.649523
29	1	9.073073	29.006738	20.134496
30	1	18.030130	26.896628	16.369295
31	1	27.880441	3.055716	12.613171
32	1	25.694310	1.319413	31.270823
33	1	21.296375	3.760312	19.515990
34	1	26.187069	20.557294	3.563820
35	1	24.781982	13.004104	24.473927
36	1	5.872901	0.636631	1.553927
37	1	22.023384	18.895800	22.993321
38	1	18.119632	31.821193	1.168760
39	1	25.467961	17.541504	25.567590
40	1	23.675574	18.388723	17.694630
41	1	28.898107	0.586804	21.975362
42	1	17.276737	18.731396	6.767708
43	1	8.433311	26.566713	23.735696
44	1	24.479941	21.597638	14.919996
45	1	22.732848	16.126175	22.770519
46	1	16.248174	27.390758	4.858524
47	1	21.556534	19.210657	18.718685
48	1	16.960867	14.927175	16.455087
49	1	21.535487	9.544020	0.700664
50	1	25.092130	10.279563	2.876003
51	1	10.973648	28.197829	3.647952
52	1	1.380048	7.398801	19.412049
53	1	5.516692	8.381461	26.108888
54	1	5.925900	3.680380	9.673846
55	1	12.372566	16.371570	25.378669
56	1	26.333111	1.738637	20.639115
57	1	15.145063	14.371378	9.030280
58	1	18.765947	15.169068	23.599559
59	1	11.119321	22.344159	25.668881
60	1	21.061184	18.358789	2.206625
61	1	11.572810	17.626623	6.586254
62	1	9.077934	9.102454	15.001716
63	1	13.745394	28.196590	24.521577
64	1	5.142162	4.491789	19.356015
65	1	8.659550	13.266913	2.349519
66	1	24.594623	25.668615	8.817287
67	1	25.074120	6.513679	5.057494
68	1	30.082081	25.722999	8.376141
69	1	25.467426	31.172122	10.853071
70	1	19.074010	3.524394	11.349584
71	1	22.136086	25.509053	21.703278
72	1	4.598685	14.114574	1.213099
73	1	22.348835	2.401850	22.511186
74	1	2.287712	21.554766	14.372039
75	1	30.572511	2.858076	22.148636
76	1	24.011937	18.532720	6.761216
77	1	23.438638	8.445341	31.021780
78	1	23.147143	22.704979	16.927125
79	1	12.118105	24.439707	20.590009
80	1	1.029152	28.612451	15.428714
81	1	7.275163	19.570886	18.380914
82	1	0.777536	20.153952	30.310452
83	1	24.157794	11.266641	19.010070
84	1	10.576720	30.237313	10.984823
85	1	28.821399	30.553068	19.707173
86	1	13.012562	13.498186	3.010361
87	1	30.658292	6.976515	2.683330
88	1	23.354808	4.187611	1.731873
89	1	15.813502	17.651557	29.042318
90	1	14.414447	2.345662	4.659701
91	1	2.795689	3.244845	30.136981
92	1	0.794302	28.823686	20.027197
93	1	14.751162	15.663949	21.038910
94	1	7.936057	30.049234	11.033163
95	1	19.322668	14.641068	11.505120
96	1	1.259925	19.136017	11.083343
97	1	6.015131	18.611139	30.003033
98	1	10.143868	5.338739	9.965017
99	1	6.364810	30.060365	2.274641
100	1	19.466104	17.736529	13.085014
101	1	19.170607	11.813454	31.895112
102	1	21.294200	16.827186	31.946920
103	1	7.928929	18.948726	3.643646
104	1	7.057065	16.426630	26.143795
105	1	6.935900	25.071798	25.096494
106	1	19.993759	18.844004	21.494895
107	1	25.573667	4.130289	20.483385
108	1	22.601529	20.836258	13.316565
109	1	5.537766	23.475953	26.392578
110	1	4.852262	20.815993	12.017583
111	1	16.380367	3.367544	28.154800
112	1	13.481787	4.042515	24.807286
113	1	20.290108	1.573152	0.456989
114	1	19.983858	5.459108	30.418044
115	1	7.143618	11.852605	29.961088
116	1	10.607456	17.250714	23.627502
117	1	6.629568	7.780753	8.844861
118	1	20.818585	17.156223	27.174219
119	1	5.266551	29.331686	7.691117
120	1	30.275888	20.274872	7.221404
121	1	20.202314	8.652515	13.054284
122	1	23.336908	30.341508	3.511009
123	1	1.226480	15.645947	8.350787
124	1	2.977440	29.475009	8.390954
125	1	8.294630	16.213483	23.832533
126	1	1.033349	4.767322	31.478173
127	1	9.602008	4.540868	22.390302
128	1	0.623699	8.703916	3.146319
129	1	3.262913	0.423884	29.970830
130	1	23.594250	4.553233	18.789087
131	1	28.774525	5.350813	6.584076
132	1	19.540838	29.552790	19.615166
133	1	31.940477	4.634132	9.416225
134	1	3.800500	11.293637	10.701022
135	1	17.391798	5.085255	26.359668
136	1	2.149530	3.580821	15.301539
137	1	6.940062	15.865555	12.043310
138	1	12.053678	9.861627	31.668678
139	1	13.886999	0.728183	22.209339
140	1	26.783907	12.623687	9.427518
141	1	16.592159	4.617126	0.488106
142	1	31.998773	7.769932	15.145392
143	1	1.849812	26.528436	16.686600
144	1	27.438900	9.691767	2.953567
145	1	9.395110	24.098190	2.613973
146	1	6.682950	27.396146	2.841091
147	1	13.805326	18.275541	20.741191
148	1	6.180439	13.789764	9.997017
149	1	16.353632	6.153097	13.270344
150	1	16.710143	29.675816	27.136725
151	1	27.922447	7.603127	13.592517
152	1	7.458296	8.926725	13.088202
153	1	21.119219	11.049297	30.551511
154	1	29.041045	29.716578	21.993220
155	1	24.636556	15.596762	12.864069
156	1	6.503735	21.445285	16.642522
157	1	8.822287	26.183558	26.222815
158	1	21.100213	5.729565	3.033845
159	1	28.245224	12.859063	32.057793
160	1	27.892918	16.238024	2.741381
161	1	31.783172	18.686268	16.864703
162	1	31.469230	1.511846	4.378132
163	1	28.020548	21.143827	12.417663
164	1	10.369425	29.580998	15.344368
165	1	3.638169	23.224572	30.779007
166	1	4.331535	28.687163	2.084193
167	1	22.100975	9.871595	11.677367
168	1	19.187976	4.612799	18.108743
169	1	11.996653	17.909151	17.468984
170	1	6.356828	26.070195	16.520912
171	1	27.979866	29.741413	31.242048
172	1	14.325698	11.533286	11.843370
173	1	8.440102	15.304919	14.122432
174	1	3.112643	24.835205	3.194394
175	1	8.993923	5.907278	25.341253
176	1	27.023803	24.259554	23.155690
177	1	14.386961	15.347256	28.651580
178	1	21.916096	15.759489	29.726810
179	1	25.404260	11.312494	14.491961
180	1	21.816729	24.656999	4.984113
181	1	25.847078	7.694763	2.959567
182	1	16.311601	10.957969	6.435456
183	1	29.685511	25.249308	1.371829
184	1	23.107653	10.635234	29.085827
185	1	20.317479	26.717069	22.863043
186	1	4.257502	12.926376	3.348471
187	1	4.265388	16.445273	26.251205
188	1	5.827870	12.886479	24.565792
189	1	2.367617	27.260669	2.344246
190	1	9.322564	6.061346	27.849183
191	1	12.981656	7.577746	6.241469
192	1	26.832777	16.564577	20.163366
193	1	9.912628	10.288531	7.903913
194	1	17.998897	7.866242	14.398827
195	1	17.091875	14.562357	5.462791
196	1	31.251306	10.852067	4.189847
197	1	14.919606	30.829878	28.772937
198	1	26.709503	2.833371	29.504025
199	1	19.197503	9.128553	18.699094
200	1	24.434972	17.943289	23.072774
201	1	12.191131	15.598571	27.710179
202	1	16.309080	25.233267	29.495039
203	1	26.658257	31.878937	16.377943
204	1	18.026516	29.566780	9.699563
205	1	9.195498	0.294749	30.499657
206	1	16.345428	1.637612	8.685139
207	1	30.702172	0.584067	28.750502
208	1	17.592497	15.350641	9.505479
209	1	5.804114	11.928956	16.207111
210	1	21.492761	12.004679	15.526473
211	1	28.819684	26.011276	10.665800
212	1	23.755303	15.587420	3.742057
213	1	9.070093	17.676588	7.648483
214	1	14.110340	23.768015	3.528862
215	1	1.835774	26.762736	19.296051
216	1	10.587974	25.174486	17.677832
217	1	16.692893	22.282586	11.084850
218	1	17.879488	3.330632	9.181673
219	1	17.688685	10.794276	17.497435
220	1	6.534564	18.251328	25.031018
221	1	19.784139	21.936316	21.088934
222	1	17.050645	27.466520	30.761472
223	1	29.408108	8.239129	11.496604
224	1	29.539539	21.372811	3.054773
225	1	25.104822	25.888591	29.467091
226	1	7.189555	26.111494	9.569011
227	1	17.460633	31.692266	15.441294
228	1	6.990313	20.624367	31.588476
229	1	15.089631	3.110088	17.675213
230	1	1.640999	13.779118	12.227351
231	1	8.210847	30.547090	4.812915
232	1	31.887591	12.740805	2.495665
233	1	2.929007	0.599452	0.978170
234	1	6.473030	1.348185	16.292428
235	1	15.202051	2.992369	23.056795
236	1	13.380712	17.765984	8.234434
237	1	17.963485	31.574070	18.009269
238	1	2.899154	15.677814	24.019272
239	1	6.164433	7.693603	6.507695
240	1	1.458446	22.613700	18.648676
241	1	19.169845	21.939912	10.751562
242	1	18.773215	21.740856	27.874914
243	1	14.105244	9.341472	10.368702
244	1	2.432115	11.560640	22.288466
245	1	31.227487	1.325180	12.925236
246	1	7.945877	24.485143	7.624899
247	1	14.645008	15.054339	15.407553
248	1	10.542921	13.289552	11.653138
249	1	25.845439	23.569640	29.471966
250	1	24.876040	16.085370	21.449973
251	1	12.829405	10.864669	17.267953
252	1	14.848455	15.765015	12.904668
253	1	21.460972	9.699419	4.893925
254	1	10.738231	9.127851	17.310162
255	1	2.656985	5.080938	22.686585
256	1	12.862814	25.267743	5.477936
257	1	14.084679	25.668624	15.455967
258	1	20.992244	25.928053	31.233774
259	1	4.406848	27.984777	15.762870
260	1	6.123900	29.867939	24.498503
261	1	9.684053	29.675681	31.522436
262	1	10.442441	13.807117	28.139992
263	1	21.786077	21.300155	10.794589
264	1	9.967682	8.147020	3.020734
265	1	5.533624	24.590661	8.243827
266	1	2.024452	16.271560	30.575620
267	1	2.217420	22.855021	1.980844
268	1	29.838322	5.558894	22.355079
269	1	5.122846	12.008210	28.248773
270	1	5.596080	14.363899	17.280221
271	1	12.604866	20.448164	20.743793
272	1	16.748798	9.958861	15.305020
273	1	11.820059	5.224637	28.511472
274	1	9.762757	20.269297	26.922877
275	1	4.197545	0.958532	15.329561
276	1	25.985672	4.631164	13.694558
277	1	24.900640	25.284308	24.831505
278	1	2.381881	17.622402	17.224376
279	1	27.339130	29.626835	15.742231
280	1	7.890899	9.680882	10.227159
281	1	8.667716	12.043940	32.072889
282	1	26.556416	18.945062	21.601402
283	1	27.299051	15.005787	9.975392
284	1	18.328142	25.374873	23.356065
285	1	19.597609	7.057622	17.110871
286	1	2.315058	3.083333	1.120442
287	1	30.952929	1.868216	6.823820
288	1	29.486281	14.884619	11.175189
289	1	29.648941	2.715080	14.471938
290	1	6.995402	1.932930	22.475186
291	1	5.900695	2.519331	5.532752
292	1	6.263088	31.445482	6.436715
293	1	1.725368	2.546174	3.607820
294	1	29.834579	9.238937	2.812478
295	1	9.910915	12.740071	24.955429
296	1	23.200964	14.400696	31.863934
297	1	17.416096	14.412548	25.899757
298	1	18.900915	8.696737	26.962508
299	1	18.534385	7.602512	9.165513
300	1	13.308050	27.394490	1.135205
301	1	6.127882	2.106854	25.743115
302	1	4.928094	4.207154	26.484558
303	1	8.101463	15.300103	27.986501
304	1	8.020163	6.187891	6.092423
305	1	2.617610	16.000886	1.153095
306	1	3.983719	25.178536	15.785398
307	1	1.164568	23.953765	4.606072
308	1	10.856881	18.618803	31.559746
309	1	1.211872	11.925400	0.362987
310	1	3.037115	25.379414	23.452564
311	1	27.579654	11.292687	7.123962
312	1	2.254283	15.754925	13.538788
313	1	10.670036	30.789945	3.780736
314	1	17.560508	29.586114	31.944065
315	1	21.839879	11.417458	6.586287
316	1	13.642291	11.179670	6.674900
317	1	4.386965	31.410565	12.998912
318	1	14.657859	11.856861	18.851704
319	1	13.099733	19.236381	10.151394
320	1	23.211140	31.832864	18.570316
321	1	26.929158	21.545884	22.624512
322	1	29.208278	16.554315	19.357554
323	1	29.028286	4.512429	24.530804
324	1	12.873378	29.310176	28.705568
325	1	12.033802	1.653564	20.225830
326	1	1.320733	6.829244	9.697605
327	1	12.112989	8.975232	24.842967
328	1	28.574946	27.759595	8.578500
329	1	19.283519	14.912895	4.179347
330	1	29.151076	8.648474	17.949795
331	1	7.163645	23.105558	3.453797
332	1	4.650597	10.316510	3.160191
333	1	10.901615	17.857691	27.193587
334	1	1.840144	30.171501	21.737472
335	1	7.536928	28.687435	22.667716
336	1	28.962823	15.596327	6.531886
337	1	12.369632	2.642920	29.687081
338	1	20.642333	11.282470	22.260900
339	1	7.687110	29.227189	6.864044
340	1	25.849302	24.549860	10.770990
341	1	10.938989	14.125716	9.352932
342	1	24.406270	1.362988	10.065537
343	1	29.445155	0.623820	2.971834
344	1	17.496626	17.925953	9.359628
345	1	11.436565	20.559886	1.640276
346	1	7.421095	16.487195	30.222559
347	1	27.461103	20.074151	27.795347
348	1	28.331239	16.647291	14.962511
349	1	7.031778	2.869700	29.884145
350	1	16.933506	31.719252	12.733981
351	1	22.645786	7.885357	21.518023
352	1	1.858992	30.734564	31.297972
353	1	8.142095	16.076905	2.532177
354	1	22.487691	10.281108	26.427313
355	1	17.891019	2.275993	0.490160
356	1	20.918898	13.419919	13.510697
357	1	17.724381	8.628234	2.058273
358	1	21.618233	12.315595	1.254581
359	1	15.953685	29.694343	24.662269
360	1	2.845354	3.988903	27.646816
361	1	10.664074	26.530374	5.374878
362	1	25.438558	2.557177	27.194475
363	1	24.666931	9.879309	12.316217
364	1	17.323412	25.631990	25.638954
365	1	27.818345	25.245046	3.872250
366	1	28.770042	10.210045	4.990769
367	1	28.377597	19.587512	23.305248
368	1	27.562588	20.558608	1.321941
369	1	2.500645	1.988370	19.429243
370	1	27.694349	3.394104	19.016024
371	1	25.189015	24.412425	27.033462
372	1	6.446184	9.540656	15.492631
373	1	29.225750	0.664656	5.503303
374	1	25.646943	24.625622	0.435818
375	1	19.273239	16.318190	30.573335
376	1	27.976770	1.516895	27.588999
377	1	5.724625	18.738334	13.773062
378	1	7.318948	2.376017	11.381611
379	1	3.119587	0.436571	21.344287
380	1	11.803268	4.909075	30.948255
381	1	16.835301	27.197633	9.756037
382	1	5.691718	15.175679	7.916454
383	1	3.343540	28.765089	19.972973
384	1	20.613153	6.596348	22.215377
385	1	30.632319	24.229763	21.039549
386	1	25.673131	28.817527	11.747916
387	1	15.161643	5.234194	19.404338
388	1	22.554664	25.959582	24.115727
389	1	6.816581	30.377067	13.074327
390	1	29.331256	4.902481	9.032130
391	1	18.053907	23.195728	8.781350
392	1	21.264924	8.018375	26.160404
393	1	14.032652	25.680470	19.882580
394	1	27.530820	24.859532	15.221171
395	1	16.719638	1.315699	19.112777
396	1	21.032540	5.147081	11.677879
397	1	4.191615	27.366003	11.895236
398	1	6.481714	3.927123	15.979150
399	1	20.734766	4.587608	25.703695
400	1	21.108047	29.280826	12.813227
401	1	23.050023	11.737380	13.037814
402	1	29.931238	30.016928	12.323956
403	1	18.271340	12.574915	10.046146
404	1	13.734458	3.011805	15.589975
405	1	21.729657	28.376011	7.719172
406	1	16.011651	16.432229	1.777306
407	1	3.596090	13.856447	25.651381
408	1	17.451691	3.909422	13.271925
409	1	26.842203	11.148987	30.814541
410	1	9.418760	4.677802	31.995497
411	1	8.296618	17.589183	19.897296
412	1	4.492299	16.843268	12.600448
413	1	16.464931	2.739911	30.433856
414	1	10.606988	23.913317	4.872247
415	1	0.645401	15.417597	2.819402
416	1	20.957818	25.721800	11.215370
417	1	24.101785	11.895481	16.496429
418	1	7.848565	19.792766	8.656595
419	1	15.277128	7.564325	18.411137
420	1	22.815772	14.368961	24.812855
421	1	14.658898	25.109042	1.516479
422	1	9.685444	31.149715	26.712407
423	1	24.637180	14.484422	17.123522
424	1	31.360275	7.407993	17.450925
425	1	28.162980	28.442784	11.004208
426	1	23.913080	30.526621	25.707499
427	1	27.669436	12.257587	14.203812
428	1	22.951005	28.543512	26.826189
429	1	18.629277	13.127901	29.701331
430	1	30.560027	16.715591	1.707185
431	1	30.728911	19.482051	4.871772
432	1	31.777232	21.993474	8.323669
433	1	23.711375	31.900174	30.080799
434	1	21.724445	15.042070	10.334586
435	1	5.017776	13.039314	30.852681
436	1	29.367129	24.773981	24.414469
437	1	30.499533	12.450804	0.348025
438	1	15.254919	19.115317	8.517082
439	1	25.342666	9.365439	19.872877
440	1	11.610178	5.721518	21.329791
441	1	30.326118	9.648171	29.588275
442	1	24.937714	16.405350	6.045249
443	1	4.458272	25.896969	25.757324
444	1	31.081617	17.939788	26.316099
445	1	31.627344	19.635873	9.113845
446	1	13.616607	24.553454	7.889174
447	1	22.193351	19.309467	31.988058
448	1	19.940834	2.185442	21.954046
449	1	25.520134	23.533733	16.077748
450	1	5.136770	4.384935	12.038526
451	1	2.528365	19.638145	15.937176
452	1	23.511673	20.721191	19.212559
453	1	23.968209	19.730543	11.083716
454	1	12.325293	14.793085	30.092094
455	1	30.446418	2.640425	9.127547
456	1	12.723376	4.206519	19.464270
457	1	13.820906	8.321276	0.675899
458	1	8.358973	6.455501	3.429022
459	1	11.174039	17.935294	13.603506
460	1	32.012110	21.427343	10.807093
461	1	15.909429	31.772150	20.876027
462	1	11.831969	22.527404	3.423201
463	1	2.778229	24.614750	18.090258
464	1	29.522084	20.315415	16.938885
465	1	26.067991	27.257534	7.336811
466	1	12.750970	17.652947	30.073937
467	1	4.538526	29.723047	17.802561
468	1	2.728518	4.860218	25.161871
469	1	19.622443	19.406080	27.381921
470	1	15.383093	4.020125	9.563758
471	1	28.661961	7.441027	9.199199
472	1	27.091571	10.087761	18.275358
473	1	2.417799	5.759292	29.479707
474	1	27.431978	22.502256	7.806076
475	1	17.635249	11.031452	22.359419
476	1	29.541746	30.336624	9.772860
477	1	3.476651	12.065233	5.543186
478	1	20.517657	25.904543	28.585793
479	1	9.130171	21.287971	17.895012
480	1	17.429115	25.824948	19.286216
481	1	14.776564	10.602837	22.065510
482	1	13.144676	3.584746	2.912073
483	1	29.830046	16.821182	12.858116
484	1	24.345895	7.628162	7.236316
485	1	32.048191	28.497075	12.878554
486	1	16.882332	19.896309	18.407869
487	1	6.973432	21.452256	10.607631
488	1	4.982050	23.938048	23.988776
489	1	30.990685	23.168165	1.758592
490	1	28.476162	17.159254	10.728206
491	1	10.738202	12.571396	4.158822
492	1	2.616702	19.943560	28.426151
493	1	4.090303	26.533548	20.780033
494	1	23.342534	8.439420	19.112570
495	1	6.929024	30.835510	8.854502
496	1	5.214328	10.560969	30.835248
497	1	9.659180	2.348676	2.729409
498	1	12.400606	9.837893	12.331877
499	1	10.769624	22.304132	14.391831
500	1	11.994012	23.098800	12.670900
501	1	21.012282	31.915599	12.267358
502	1	4.199866	3.221046	21.488025
503	1	17.426769	16.498856	11.899456
504	1	11.317631	14.975079	5.126688
505	1	29.501308	15.922417	8.755829
506	1	0.320891	13.078628	7.722436
507	1	10.355402	27.375319	16.359030
508	1	2.074723	25.127916	29.928422
509	1	5.779874	18.106726	22.514199
510	1	20.059162	11.613022	17.629306
511	1	4.199704	23.152345	19.543705
512	1	19.588068	6.294692	6.696514
513	1	14.654376	6.619731	11.461774
514	1	16.499969	5.424840	17.403638
515	1	23.520069	19.723001	2.467188
516	1	12.095502	12.149042	13.342519
517	1	26.740511	22.277783	31.475067
518	1	5.439565	31.737624	26.273677
519	1	30.473957	8.414989	32.095287
520	1	20.834045	4.236724	23.349780
521	1	7.050038	20.550165	26.218841
522	1	27.834711	21.698081	18.392500
523	1	3.345527	9.292092	22.951542
524	1	15.360880	6.590162	31.128593
525	1	3.848020	9.749380	27.684182
526	1	23.224055	9.464349	6.818342
527	1	31.552605	26.514876	20.755977
528	1	23.918949	2.548493	29.530705
529	1	17.151621	3.734904	19.254769
530	1	28.749324	5.178257	2.630965
531	1	28.887957	28.050996	27.032592
532	1	2.314800	13.602396	1.889392
533	1	26.304665	9.120744	8.358559
534	1	3.198468	31.530228	27.421839
535	1	6.056353	23.404063	15.093949
536	1	26.937129	28.534304	23.073531
537	1	19.850002	7.551008	1.445368
538	1	23.625027	27.625290	15.946006
539	1	17.265987	10.031488	4.148604
540	1	31.833227	8.731970	25.663850
541	1	3.661074	28.124854	24.641516
542	1	29.477571	7.418903	15.630102
543	1	15.067728	20.321515	28.755466
544	1	24.181646	22.921356	31.254203
545	1	27.429144	19.392455	10.494212
546	1	2.718559	21.141241	-1.090474
547	1	2.647449	22.956886	22.964104
548	1	25.193749	18.644261	19.614603
549	1	21.021034	12.032966	28.231643
550	1	16.377601	24.811530	16.061318
551	1	8.536617	18.713636	30.662063
552	1	26.248652	21.074059	20.127810
553	1	5.632394	13.936346	21.478299
554	1	6.656746	7.972705	17.783904
555	1	6.945119	2.466325	3.136654
556	1	29.773344	19.632318	27.938554
557	1	6.294462	9.000469	23.915650
558	1	2.692361	8.550803	25.710339
559	1	10.042776	31.511335	17.078389
560	1	20.374002	14.335658	19.883578
561	1	25.664497	31.011312	3.994644
562	1	4.922819	30.808095	19.975489
563	1	1.914199	26.584524	4.895344
564	1	27.325397	29.042412	6.289658
565	1	13.413407	15.957257	2.118326
566	1	9.219547	26.576839	2.597137
567	1	31.038667	13.804298	4.489043
568	1	12.261354	30.234518	13.286502
569	1	5.914614	27.931799	32.136918
570	1	24.963864	10.052281	27.251831
571	1	30.990021	21.558653	29.390840
572	1	29.370209	17.645438	17.028868
573	1	22.624646	15.092578	20.411788
574	1	10.653691	0.957648	28.638017
575	1	29.431414	26.249781	16.802477
576	1	22.650387	20.351735	16.586611
577	1	13.074431	20.111421	7.158761
578	1	17.445417	25.451508	8.111959
579	1	27.984571	2.974695	10.098636
580	1	2.916555	31.511129	10.833908
581	1	21.621939	18.739012	11.839981
582	1	15.458253	1.195364	6.488987
583	1	25.157617	23.375387	8.505148
584	1	27.600690	21.047152	25.232443
585	1	1.244928	2.939459	7.962006
586	1	0.842140	5.290424	11.691238
587	1	29.677023	27.405562	12.785145
588	1	6.276401	6.570357	12.619367
589	1	14.160822	2.347254	31.570815
590	1	4.737024	20.994455	14.565984
591	1	31.147168	3.210938	32.081914
592	1	20.052003	10.676073	26.199942
593	1	30.590940	5.776133	4.899741
594	1	21.875381	0.700121	9.953124
595	1	0.964524	3.217685	26.196774
596	1	3.771884	11.684716	0.920985
597	1	3.838443	14.829798	9.236029
598	1	26.179089	25.705665	19.505396
599	1	7.361619	30.167939	26.983374
600	1	23.034170	21.819462	1.481004
601	1	17.902412	6.532964	22.269974
602	1	4.256284	16.195493	21.790269
603	1	19.937057	3.244098	16.047589
604	1	2.538599	8.996130	10.180610
605	1	27.368886	15.670289	12.549568
606	1	14.750739	13.453801	30.625911
607	1	10.243913	4.200879	26.636782
608	1	26.446077	18.994665	5.725734
609	1	9.635097	9.640299	0.905749
610	1	25.608211	8.827675	14.327756
611	1	6.347617	32.013407	10.982986
612	1	23.305912	17.419767	1.714805
613	1	22.382336	12.586556	20.626082
614	1	21.691998	29.072118	15.313429
615	1	13.197172	16.596868	19.075036
616	1	11.926919	31.466582	22.001559
617	1	30.140405	12.961683	24.829978
618	1	23.848795	11.204806	4.936250
619	1	17.794574	22.729567	15.299575
620	1	22.255372	6.473911	8.344038
621	1	4.592914	31.713351	8.679887
622	1	20.215115	4.090638	13.752734
623	1	21.481969	15.389162	5.196720
624	1	5.954183	6.392643	1.964233
625	1	2.561688	17.503580	5.972690
626	1	26.228160	13.484797	27.350979
627	1	8.162181	22.512620	1.086008
628	1	23.732294	25.539060	4.075703
629	1	24.193999	19.972982	4.739608
630	1	31.213920	11.775802	9.597979
631	1	30.902229	16.075128	15.295138
632	1	28.667425	8.731857	6.973695
633	1	21.207868	21.080573	28.535533
634	1	17.777979	10.321796	8.424686
635	1	12.169503	15.173854	20.800190
636	1	20.491412	15.149304	25.406132
637	1	14.990696	9.181069	7.778479
638	1	7.025611	28.351921	9.205400
639	1	18.045263	6.068396	2.604160
640	1	24.564617	16.980750	8.625622
641	1	6.424281	0.525089	30.550727
642	1	10.500667	8.239788	12.964876
643	1	8.788897	31.504585	7.219196
644	1	8.086705	11.750006	20.529735
645	1	14.201600	11.690085	26.303686
646	1	22.529827	21.704597	23.357549
647	1	14.268846	22.575538	11.884107
648	1	2.109317	18.368235	26.601542
649	1	5.705359	16.478446	28.331924
650	1	27.056958	6.026845	0.543492
651	1	23.731676	8.672804	4.312029
652	1	4.419550	16.309853	17.324546
653	1	21.980824	29.290492	17.870069
654	1	22.335957	19.305873	27.127166
655	1	16.382776	21.334881	24.614815
656	1	4.603764	23.765389	1.395785
657	1	25.991654	17.339447	14.168533
658	1	16.614409	14.113165	14.104952
659	1	1.582917	11.807809	16.393284
660	1	26.638155	4.425433	5.576750
661	1	31.037327	14.300846	22.745462
662	1	3.570693	30.586967	6.114178
663	1	16.222756	16.675477	26.769834
664	1	18.133664	26.464401	5.991856
665	1	1.538955	20.372424	1.082635
666	1	3.844581	13.424270	23.144782
667	1	1.758419	1.588025	5.875986
668	1	9.648407	30.391453	22.517763
669	1	11.413213	22.387754	19.325287
670	1	9.846449	13.337541	13.980155
671	1	17.131270	29.733974	29.554821
672	1	29.368777	12.426786	16.040707
673	1	26.872234	0.738473	9.343398
674	1	27.784259	5.793159	20.315494
675	1	21.784504	23.654979	32.133308
676	1	14.080415	28.373089	12.669435
677	1	5.361033	30.965408	28.805389
678	1	15.001500	18.805815	30.883458
679	1	26.672298	7.590794	18.305833
680	1	14.635432	17.619179	25.043935
681	1	8.847476	8.356977	19.173112
682	1	2.889679	29.076858	4.142378
683	1	30.439944	5.065410	26.714206
684	1	3.515792	17.088557	15.065743
685	1	17.266766	29.853033	22.409323
686	1	8.788936	0.338900	12.531631
687	1	31.956103	1.039003	18.456921
688	1	21.300679	23.228432	2.897224
689	1	18.540234	12.545342	12.559143
690	1	13.270035	0.754282	14.581317
691	1	30.706437	6.471884	10.545904
692	1	24.103454	22.127427	12.096588
693	1	31.487503	13.463696	17.262733
694	1	15.314598	31.787029	26.259584
695	1	10.810192	22.787667	16.802231
696	1	5.777875	30.668669	15.544504
697	1	0.351260	17.723311	12.782988
698	1	22.841376	30.138871	23.340186
699	1	9.241797	29.712448	8.852838
700	1	6.555592	20.157940	23.653597
701	1	27.619657	30.787729	11.598355
702	1	12.372120	17.089764	4.101632
703	1	21.499686	4.201022	6.934045
704	1	30.019474	17.693283	23.622411
705	1	16.795480	10.863173	11.237551
706	1	22.751192	31.066674	14.039674
707	1	25.249320	27.078521	27.044179
708	1	3.303847	29.610770	29.276569
709	1	1.192162	19.292609	21.370996
710	1	5.839721	14.286247	26.789437
711	1	3.912762	24.342621	28.123405
712	1	20.050012	30.977861	14.417410
713	1	3.904950	2.482354	8.231299
714	1	0.495904	21.688556	24.325563
715	1	1.653203	23.140233	9.795125
716	1	5.274290	28.179784	29.697198
717	1	23.657602	25.482417	19.910524
718	1	5.561515	6.077542	10.175842
719	1	21.726371	20.702590	3.808681
720	1	6.754469	21.082848	5.050013
721	1	18.268798	24.406312	27.861425
722	1	9.911914	15.336309	7.223507
723	1	4.948104	16.668144	5.938032
724	1	18.485328	21.383533	17.240428
725	1	2.545590	7.970285	14.574073
726	1	21.282658	24.335094	15.895914
727	1	7.732968	31.031574	0.479091
728	1	14.240978	29.457054	26.593125
729	1	31.157761	30.554862	19.124533
730	1	30.183603	9.037317	13.810827
731	1	28.839057	18.084052	21.297846
732	1	1.483261	15.537092	15.958700
733	1	24.804463	2.890025	22.546316
734	1	6.716047	27.848598	11.874845
735	1	22.285607	10.392726	17.225912
736	1	26.593598	1.197957	11.912524
737	1	26.797109	8.353899	10.793478
738	1	11.951667	22.116475	8.343100
739	1	26.022328	10.669427	10.410076
740	1	16.894199	2.765695	4.664855
741	1	11.751272	16.333210	32.035504
742	1	25.088633	5.287203	23.003440
743	1	31.410862	29.064461	26.675115
744	1	4.902791	5.745646	21.515805
745	1	7.447669	15.973491	6.625095
746	1	19.867719	17.070776	15.772511
747	1	27.919669	13.921542	19.733470
748	1	15.535822	20.854145	6.639418
749	1	8.509856	22.680074	6.012518
750	1	10.065411	11.820558	22.430575
751	1	12.046908	29.517307	31.528915
752	1	16.415097	7.549607	3.956250
753	1	27.211543	26.234281	1.614436
754	1	11.006593	4.233863	17.276305
755	1	28.924426	0.523500	8.223049
756	1	21.803838	27.854179	10.852076
757	1	0.512537	3.816059	5.354497
758	1	18.702837	12.661736	27.137485
759	1	6.015010	22.851036	31.479798
760	1	12.164939	24.808632	24.504893
761	1	2.636530	20.624921	23.192084
762	1	3.621912	18.120197	1.540763
763	1	28.273809	27.132006	14.860015
764	1	10.141726	27.339412	13.728555
765	1	30.187172	11.481062	13.846344
766	1	27.203342	13.836912	2.187743
767	1	11.669597	29.283293	20.936787
768	1	12.615258	30.823993	16.137198
769	1	15.386588	21.262666	31.291691
770	1	10.961193	4.779243	24.252077
771	1	14.707138	26.502813	31.161790
772	1	28.376209	7.712005	1.534503
773	1	31.263073	0.351297	8.822279
774	1	6.619370	22.065153	7.957175
775	1	31.441116	22.127921	5.817239
776	1	29.853324	2.890738	2.207865
777	1	25.177359	12.092421	29.265363
778	1	8.454918	23.571406	14.276722
779	1	17.756073	29.620794	14.149133
780	1	12.603424	25.198374	31.943821
781	1	21.280796	14.809950	15.635580
782	1	18.939247	0.395196	23.396065
783	1	1.239452	3.380059	17.619488
784	1	17.650538	3.725674	2.617262
785	1	15.747790	4.453699	15.268590
786	1	10.076192	27.879119	22.412666
787	1	10.966839	26.935878	24.757815
788	1	26.338056	27.089669	9.991751
789	1	12.943917	13.076411	15.791396
790	1	17.103026	17.234284	31.315008
791	1	17.411134	8.163420	17.035742
792	1	26.521682	11.559598	1.502470
793	1	5.610911	24.991971	3.722261
794	1	23.128596	27.973036	3.940346
795	1	21.491695	28.080748	24.760560
796	1	24.408827	26.631532	2.028506
797	1	23.671623	8.625778	1.647999
798	1	14.442769	31.974471	12.330387
799	1	1.649589	18.097512	8.672561
800	1	12.927383	21.692780	17.379255
801	1	27.393488	15.752991	26.903169
802	1	23.515108	21.375274	8.937086
803	1	23.768216	31.875961	5.763264
804	1	19.966756	17.261993	4.237100
805	1	9.037914	18.310579	25.341388
806	1	31.811005	27.723850	1.244529
807	1	0.342233	5.242032	21.427317
808	1	2.875765	12.059107	13.355878
809	1	28.431094	14.372067	4.411311
810	1	15.309502	24.959640	5.514916
811	1	1.355718	8.175246	7.403547
812	1	26.452111	1.150410	23.145977
813	1	27.939823	30.897615	23.950864
814	1	13.193556	4.201191	8.220803
815	1	20.410141	16.322490	21.385691
816	1	30.074420	22.257765	12.015110
817	1	14.209929	7.488739	24.994466
818	1	8.646651	3.306100	9.276386
819	1	10.174968	13.579820	20.604504
820	1	6.474440	9.594159	19.820543
821	1	9.999697	20.289110	13.301190
822	1	16.277993	11.678311	13.582999
823	1	27.397446	16.699935	5.181398
824	1	28.856406	18.400768	6.245144
825	1	21.847989	31.417104	16.351816
826	1	10.474018	25.408901	22.313018
827	1	24.906776	15.479436	23.917532
828	1	31.922786	23.560866	26.116727
829	1	13.026648	11.148688	3.708888