ITEM: TIMESTEP
0
ITEM: NUMBER OF ATOMS
2000
ITEM: BOX BOUNDS pp pp pp
0.299875	32.130125
0.299875	32.130125
0.299875	32.130125
ITEM: ATOMS id type x y z
1	1	8.082118	21.718977	22.192907
2	1	25.701639	0.650174	28.727117
3	1	19.932480	11.636029	8.416929
4	1	16.159654	26.465185	11.901354
5	1	23.405491	19.798647	24.696063
6	1	3.837232	19.070674	21.216067
7	1	22.797054	23.675526	25.416852
8	1	9.642612	18.609043	18.040148
9	1	15.053446	17.005305	17.047809
10	1	21.802341	3.678940	31.124122
11	1	19.489669	18.777125	8.015593
12	1	6.504111	4.812330	31.762068
13	1	22.349550	11.920822	24.172289
14	1	4.218094	6.645772	5.452170
15	1	3.435807	30.682363	25.043039
16	1	25.942571	19.581022	24.059775
17	1	7.449551	26.542456	30.459708
18	1	15.535016	29.633376	6.308939
19	1	27.876176	18.375720	12.920856
20	1	2.997061	24.739765	8.585200
21	1	31.688220	15.327715	12.503153
22	1	23.611036	28.618536	13.461240
23	1	8.858828	29.354048	17.436848
24	1	20.573397	31.523265	18.497018
25	1	16.636089	29.349351	16.578994
26	1	23.234744	17.267997	28.143346
27	1	30.233518	28.614730	5.190118
28	1	24.382433	26.227898	14.178371
29	1	9.098040	29.011447	20.149586
30	1	17.983683	26.906421	16.284729
31	1	27.913853	2.994449	12.635769
32	1	25.705766	1.317220	31.260921
33	1	21.314964	3.755498	19.331819
34	1	26.192069	20.499313	3.463045
35	1	24.782036	13.015168	24.484723
36	1	5.815376	0.641671	1.356498
37	1	21.999294	18.884632	22.981295
38	1	18.116436	31.834262	1.122783
39	1	25.454135	17.516007	25.547771
40	1	23.640958	18.356228	17.680406
41	1	28.880449	0.554817	21.950590
42	1	17.282832	18.729738	6.744557
43	1	8.493587	26.584478	23.790844
44	1	24.191859	21.425563	14.867288
45	1	22.720015	16.112114	22.775438
46	1	16.258284	27.414292	4.861611
47	1	21.515326	19.203101	18.758028
48	1	16.942400	15.010488	16.525238
49	1	21.538651	9.534462	0.717732
50	1	25.084809	10.276278	2.891770
51	1	10.967416	28.173377	3.680369
52	1	1.363449	7.366737	19.409646
53	1	5.515422	8.369425	26.049555
54	1	5.937852	3.753464	9.670113
55	1	12.416272	16.360110	25.358350
56	1	26.272838	1.716902	20.650295
57	1	15.175639	14.441228	9.066849
58	1	18.777651	15.183548	23.608438
59	1	11.154935	22.388233	25.768776
60	1	21.077665	18.374648	2.197015
61	1	11.537967	17.633384	6.598836
62	1	9.124527	9.096709	15.077768
63	1	13.793691	28.228150	24.509977
64	1	5.151032	4.478689	19.359782
65	1	8.706090	13.179145	2.317105
66	1	24.620254	25.643741	8.736660
67	1	25.095229	6.504602	5.061270
68	1	30.089738	25.717341	8.391896
69	1	25.490796	31.126528	10.825181
70	1	19.071750	3.527661	11.345580
71	1	22.179943	25.458686	21.629123
72	1	4.601806	14.048370	1.247531
73	1	22.212007	2.358091	22.505378
74	1	2.272987	21.562722	14.373724
75	1	30.544919	2.821561	22.122378
76	1	24.024343	18.536291	6.730158
77	1	23.427255	8.457135	31.020484
78	1	23.043876	22.715424	16.907490
79	1	12.128525	24.448986	20.593145
80	1	1.019723	28.552137	15.428880
81	1	7.307798	19.535555	18.381624
82	1	0.849960	20.122002	30.313556
83	1	24.146132	11.251701	19.010751
84	1	10.576914	30.279616	10.970480
85	1	28.870917	30.565834	19.724074
86	1	13.056756	13.230365	3.022743
87	1	30.656485	6.942863	2.696321
88	1	23.387174	4.194883	1.711301
89	1	15.818527	17.596482	29.069870
90	1	14.428118	2.256275	4.530818
91	1	2.719347	3.224292	30.061094
92	1	0.791626	28.797739	20.036024
93	1	14.740832	15.670243	21.060647
94	1	7.951642	30.079948	11.022582
95	1	19.330359	14.653394	11.528801
96	1	1.243004	19.179310	11.086003
97	1	6.128630	18.565413	30.091973
98	1	10.090146	5.495631	10.027505
99	1	6.384567	29.783856	1.646295
100	1	19.473896	17.737448	13.057363
101	1	19.189840	11.814336	31.921774
102	1	21.313569	16.836821	31.958125
103	1	7.988974	18.960536	3.692665
104	1	7.081885	16.427903	26.164103
105	1	7.016940	25.069241	25.196908
106	1	19.985954	18.842601	21.464269
107	1	25.524250	4.106247	20.487290
108	1	22.528331	20.838143	13.163296
109	1	5.567981	23.522129	26.498613
110	1	4.831660	20.854307	12.007577
111	1	16.273618	3.364578	28.191919
112	1	13.454207	4.040245	24.853917
113	1	20.327247	1.574822	0.431436
114	1	19.994262	5.441103	30.389620
115	1	7.190071	11.902561	30.061610
116	1	10.608782	17.285312	23.633781
117	1	6.664215	7.642915	8.703460
118	1	20.831038	17.168815	27.196824
119	1	5.269366	29.450413	7.622720
120	1	30.285767	20.291630	7.214727
121	1	20.240920	8.697785	13.056501
122	1	23.349023	30.347605	3.501974
123	1	1.214665	15.671007	8.373273
124	1	3.010327	29.512489	8.448051
125	1	8.302330	16.232036	23.854381
126	1	0.927400	4.729606	31.396660
127	1	9.620987	4.547375	22.382544
128	1	0.594853	8.687347	3.091542
129	1	3.172027	0.445115	29.912673
130	1	23.580035	4.556916	18.782491
131	1	28.761897	5.320213	6.592197
132	1	19.518610	29.517276	19.564034
133	1	31.942158	4.590804	9.401610
134	1	3.670408	11.216734	10.609385
135	1	17.309203	5.147145	26.355090
136	1	2.166066	3.567134	15.290617
137	1	6.941309	15.877427	12.036370
138	1	12.001172	9.809250	31.829925
139	1	13.959404	0.731162	22.267646
140	1	26.780684	12.617686	9.427340
141	1	16.558280	4.633224	0.564674
142	1	32.002214	7.757888	15.135865
143	1	1.853847	26.459986	16.714844
144	1	27.438302	9.679321	2.955333
145	1	9.409997	24.161086	2.618709
146	1	6.686949	27.424483	2.868169
147	1	13.800431	18.299653	20.739232
148	1	6.222343	13.969975	10.028029
149	1	16.277920	6.102820	13.318003
150	1	16.723805	29.724749	27.123477
151	1	27.950615	7.591323	13.600725
152	1	7.455896	8.909932	13.273611
153	1	21.107885	11.045316	30.563877
154	1	29.018589	29.672776	21.974604
155	1	24.631263	15.571598	12.834223
156	1	6.552473	21.431885	16.629921
157	1	8.874908	26.217593	26.298715
158	1	21.142020	5.730431	3.015236
159	1	28.219081	12.844402	32.069813
160	1	27.912666	16.221388	2.746632
161	1	31.662834	18.586610	16.911593
162	1	31.512715	1.490604	4.428690
163	1	28.013479	21.173765	12.449295
164	1	10.354238	29.596173	15.345404
165	1	3.714169	23.199119	30.743015
166	1	4.284665	28.676113	2.027678
167	1	22.102728	9.886079	11.672549
168	1	19.184624	4.580126	18.017342
169	1	12.007036	17.927974	17.489614
170	1	6.362363	26.062510	16.535100
171	1	28.028467	29.774133	31.249397
172	1	14.331473	11.580496	11.868231
173	1	8.442436	15.358418	14.188666
174	1	3.142166	24.895026	3.231837
175	1	8.970602	5.893378	25.345735
176	1	26.980146	24.287515	23.037027
177	1	14.358098	15.298451	28.717894
178	1	21.931821	15.781229	29.738314
179	1	25.417036	11.302212	14.492281
180	1	21.827793	24.674191	4.949191
181	1	25.842767	7.703711	2.972031
182	1	16.354561	11.011304	6.478421
183	1	29.674155	25.200716	1.352943
184	1	23.094417	10.643214	29.095123
185	1	20.349501	26.599738	22.774014
186	1	4.338454	12.746214	3.366551
187	1	4.329623	16.421810	26.262205
188	1	5.889325	12.838472	24.624318
189	1	2.368059	27.295076	2.379191
190	1	9.321796	6.023934	27.860483
191	1	12.888332	7.475055	6.265474
192	1	26.803292	16.563461	20.149475
193	1	10.033100	10.365979	7.960346
194	1	17.629224	7.258774	16.344631
195	1	17.072711	14.537134	5.464706
196	1	31.256480	10.853099	4.169362
197	1	14.882887	30.802364	28.766249
198	1	26.711291	2.833108	29.478123
199	1	19.266638	9.140790	18.764649
200	1	24.398402	17.934428	23.050809
201	1	12.201776	15.567190	27.719381
202	1	16.363323	25.235681	29.476140
203	1	26.670660	31.872386	16.395591
204	1	18.002265	29.598244	9.677116
205	1	9.350471	0.564835	30.687366
206	1	16.342026	1.703885	8.652896
207	1	30.644507	0.597184	28.692377
208	1	17.607394	15.361900	9.517276
209	1	5.781849	11.915195	16.259838
210	1	21.488640	11.993180	15.547488
211	1	28.774443	25.993900	10.656181
212	1	23.756281	15.582888	3.746372
213	1	9.064624	17.699155	7.651400
214	1	14.117800	23.791046	3.507650
215	1	1.860229	26.739988	19.331056
216	1	10.583725	25.191265	17.689774
217	1	16.692050	22.288437	11.031283
218	1	17.827679	3.394342	9.312440
219	1	17.698638	11.031755	17.595085
220	1	6.522679	18.205601	25.035908
221	1	19.791619	21.914214	21.078267
222	1	17.056267	27.472208	30.724800
223	1	29.409423	8.227500	11.491578
224	1	29.591273	21.354209	3.031613
225	1	25.168949	25.932357	29.484612
226	1	7.202628	26.152859	9.577989
227	1	17.442911	31.663069	15.394347
228	1	7.047834	20.577374	31.678806
229	1	15.071224	3.072524	17.673624
230	1	1.626507	13.781546	12.254237
231	1	8.499921	30.724494	4.954266
232	1	31.903663	12.726689	2.507185
233	1	2.875623	0.633289	0.901423
234	1	6.445961	1.326633	16.338058
235	1	15.178133	3.041924	23.064762
236	1	13.360406	17.821541	8.235691
237	1	17.952840	31.548903	17.971870
238	1	2.918141	15.641695	24.017416
239	1	5.942067	8.356594	6.659940
240	1	1.509994	22.574846	18.655736
241	1	19.151214	21.924285	10.684782
242	1	18.796548	21.753398	27.851445
243	1	14.152811	9.355938	10.453350
244	1	2.418947	11.526266	22.338201
245	1	31.226238	1.316096	12.932007
246	1	7.959211	24.524366	7.639696
247	1	14.644348	15.098675	15.433746
248	1	10.602615	13.306744	11.744932
249	1	25.808138	23.595682	29.432315
250	1	24.851820	16.068210	21.439489
251	1	12.783801	10.846010	17.288668
252	1	14.861860	15.808301	12.930860
253	1	21.469384	9.677061	4.924809
254	1	10.700624	9.120047	17.351034
255	1	2.653874	5.040125	22.660088
256	1	12.876833	25.311888	5.456249
257	1	14.028821	25.702495	15.467261
258	1	21.014166	25.957681	31.204071
259	1	4.419544	27.951907	15.789643
260	1	6.164449	29.841300	24.515717
261	1	9.558418	29.798619	31.605986
262	1	10.423191	13.777868	28.042513
263	1	21.761541	21.276830	10.700305
264	1	9.035275	7.431901	2.767927
265	1	5.549875	24.653534	8.250178
266	1	2.068117	16.272396	30.580188
267	1	2.239900	22.891100	2.155275
268	1	29.813030	5.525640	22.335902
269	1	5.150258	11.991631	28.284847
270	1	5.566248	14.365317	17.297288
271	1	12.604894	20.464934	20.765865
272	1	16.798745	9.866147	15.373447
273	1	11.811993	5.219740	28.561729
274	1	9.837784	20.253104	26.952763
275	1	4.191328	0.957980	15.333509
276	1	25.998936	4.567378	13.741788
277	1	24.905694	25.257984	24.764848
278	1	2.345932	17.651546	17.201142
279	1	27.400999	29.676643	15.738241
280	1	7.764316	10.307189	11.250840
281	1	8.695929	11.779891	32.188084
282	1	26.497772	18.950491	21.539227
283	1	27.297930	15.016940	9.953775
284	1	18.333349	25.352220	23.305800
285	1	19.698024	7.025170	17.186721
286	1	2.216400	3.087550	1.069963
287	1	30.844696	1.760843	6.853862
288	1	29.476633	14.904019	11.168478
289	1	29.649349	2.662712	14.554069
290	1	7.001081	1.924803	22.487924
291	1	5.540171	2.417317	5.719458
292	1	6.332087	31.542611	6.339257
293	1	1.748081	2.555598	3.661556
294	1	29.822542	9.217341	2.799065
295	1	9.949121	12.741699	24.999094
296	1	23.208759	14.415166	31.867988
297	1	17.423258	14.417189	25.919296
298	1	18.881646	8.687522	26.967760
299	1	18.549574	7.605745	9.181191
300	1	13.182816	27.303554	0.917887
301	1	6.141898	2.096652	25.725059
302	1	4.927371	4.170686	26.449862
303	1	8.131314	15.271367	27.975603
304	1	7.753047	6.471316	6.334318
305	1	2.641944	15.971161	1.191492
306	1	3.971252	25.163851	15.810290
307	1	1.201656	23.985962	4.628737
308	1	10.907658	18.557517	31.560956
309	1	1.173841	11.937310	0.320423
310	1	3.155962	25.492744	23.524982
311	1	27.580101	11.294249	7.114379
312	1	2.243077	15.793409	13.533663
313	1	10.995470	30.615256	3.824363
314	1	17.551026	29.584076	31.930653
315	1	21.836724	11.397975	6.613988
316	1	13.718976	11.239648	6.869431
317	1	4.427423	31.389880	13.052075
318	1	14.619211	11.923526	18.874034
319	1	13.096749	19.251244	10.168346
320	1	23.182339	31.843778	18.598506
321	1	26.790721	21.527323	22.500023
322	1	29.175744	16.516139	19.346839
323	1	28.985983	4.484808	24.518409
324	1	12.761745	29.216902	28.654484
325	1	12.040688	1.660869	20.205619
326	1	1.298339	6.808509	9.686201
327	1	12.115896	8.951607	24.829232
328	1	28.627299	27.767567	8.536641
329	1	19.281773	14.887076	4.195504
330	1	29.136401	8.620056	17.930474
331	1	7.196210	23.139207	3.479494
332	1	4.860648	10.139173	3.115920
333	1	10.963384	17.888087	27.218846
334	1	1.845985	30.156122	21.737246
335	1	7.588962	28.711234	22.656732
336	1	28.959932	15.586102	6.537790
337	1	12.364820	2.625861	29.823981
338	1	20.639881	11.270542	22.298059
339	1	7.686482	29.297021	6.855059
340	1	25.876152	24.559254	10.724777
341	1	10.971578	14.211565	9.431304
342	1	24.405418	1.337105	10.078742
343	1	29.474631	0.591519	3.003595
344	1	17.509403	17.945335	9.340540
345	1	11.449763	20.513751	1.677856
346	1	7.465560	16.437687	30.244797
347	1	27.509263	20.088745	27.744751
348	1	28.317461	16.653452	14.931236
349	1	7.006028	2.850646	29.868491
350	1	16.901462	31.702837	12.713349
351	1	22.641844	7.867253	21.528304
352	1	1.748225	30.761619	31.264470
353	1	8.205979	15.899744	2.543060
354	1	22.487743	10.290825	26.435771
355	1	17.935525	2.314791	0.480272
356	1	20.923744	13.425720	13.506675
357	1	17.744404	8.636634	2.083456
358	1	21.613763	12.313248	1.281279
359	1	15.990240	29.782693	24.650656
360	1	2.826405	3.962031	27.591189
361	1	10.679285	26.545656	5.408798
362	1	25.418755	2.546458	27.176412
363	1	24.646196	9.848724	12.318310
364	1	17.356733	25.702453	25.577270
365	1	27.826694	25.199758	3.826310
366	1	28.772346	10.198032	4.978279
367	1	28.301866	19.591285	23.265698
368	1	27.648072	20.548116	1.269127
369	1	2.503053	1.956764	19.413266
370	1	27.656592	3.384783	19.044064
371	1	25.201188	24.405285	26.970580
372	1	6.430629	9.521780	15.552148
373	1	29.171350	0.676950	5.470198
374	1	25.658445	24.649691	0.380680
375	1	19.289987	16.332764	30.582338
376	1	27.955826	1.507885	27.550177
377	1	5.711915	18.736377	13.771862
378	1	7.338042	2.438305	11.370249
379	1	3.123801	0.424772	21.337645
380	1	11.778055	4.853159	31.060545
381	1	16.850317	27.219101	9.707981
382	1	5.688528	15.210710	7.920177
383	1	3.346280	28.754138	19.980924
384	1	20.588043	6.520531	22.188149
385	1	30.695280	24.173758	21.135076
386	1	25.674101	28.774749	11.715328
387	1	15.193748	5.201152	19.360253
388	1	22.575009	25.917096	24.053311
389	1	6.841264	30.387418	13.087717
390	1	29.334045	4.863416	9.040864
391	1	18.085522	23.195827	8.715729
392	1	21.264376	8.032251	26.165592
393	1	14.040739	25.691985	19.884164
394	1	26.356866	25.300571	15.127327
395	1	16.716490	1.284984	19.086613
396	1	21.096382	5.060005	11.610479
397	1	4.208805	27.356858	11.915366
398	1	6.486830	3.906077	15.987641
399	1	20.713085	4.581407	25.693729
400	1	21.129590	29.233776	12.737599
401	1	23.056122	11.733070	13.039085
402	1	29.915039	29.887758	12.338060
403	1	18.277085	12.547128	10.073858
404	1	13.752374	3.023221	15.551347
405	1	21.739625	28.411749	7.703598
406	1	16.000060	16.380402	1.792487
407	1	3.660648	13.832329	25.665256
408	1	17.402493	3.898016	13.150648
409	1	26.822407	11.137674	30.821478
410	1	9.431928	4.728873	32.136065
411	1	8.302300	17.586815	19.902560
412	1	4.472282	16.863376	12.598522
413	1	16.413958	2.790384	30.536763
414	1	10.648928	23.905014	4.872050
415	1	0.673925	15.391117	2.843645
416	1	20.974614	25.713643	11.102661
417	1	24.092953	11.877770	16.501762
418	1	7.840746	19.813301	8.644562
419	1	15.306496	7.518126	18.395645
420	1	22.814441	14.371573	24.824745
421	1	14.662083	25.100768	1.492034
422	1	9.718818	31.184298	26.672407
423	1	24.644614	14.466524	17.113060
424	1	31.351170	7.383141	17.439586
425	1	28.170544	28.395946	10.990341
426	1	23.887709	30.502589	25.682915
427	1	27.680649	12.245803	14.157076
428	1	22.966546	28.510459	26.793961
429	1	18.669763	13.101517	29.711815
430	1	30.593510	16.696983	1.709170
431	1	30.742511	19.483826	4.879409
432	1	31.769987	22.020058	8.301380
433	1	23.722052	31.895487	30.052058
434	1	21.706554	15.003976	10.352224
435	1	4.996159	13.047218	30.849255
436	1	29.439243	24.745480	24.382612
437	1	30.482632	12.485564	0.339873
438	1	15.249687	19.122182	8.487304
439	1	25.353993	9.365934	19.870416
440	1	11.627046	5.718898	21.294785
441	1	30.278383	9.646618	29.504560
442	1	24.943823	16.402084	6.036183
443	1	4.582268	26.004488	25.816706
444	1	31.172066	17.918293	26.204328
445	1	31.617981	19.674143	9.119556
446	1	13.636020	24.572211	7.859655
447	1	22.250076	19.326029	31.998159
448	1	19.671277	1.937437	22.305140
449	1	25.377847	23.218001	16.001664
450	1	5.132257	4.419044	12.011965
451	1	2.802503	19.710700	15.983268
452	1	23.507300	20.712662	19.165577
453	1	23.969259	19.692027	11.026053
454	1	12.206458	14.667010	30.132795
455	1	30.428877	2.596480	9.153705
456	1	12.736677	4.191992	19.431270
457	1	13.887156	8.395911	0.668430
458	1	7.200181	9.137509	1.848025
459	1	11.178946	17.959777	13.601700
460	1	31.979399	21.491967	10.801806
461	1	15.919592	31.758003	20.873051
462	1	11.857265	22.524866	3.401958
463	1	2.794169	24.587635	18.133752
464	1	29.550308	20.318139	16.992265
465	1	26.102545	27.255588	7.272335
466	1	12.803257	17.549132	30.040685
467	1	4.542492	29.700014	17.816507
468	1	2.718939	4.832703	25.129474
469	1	19.628927	19.411924	27.409762
470	1	15.388580	4.103384	9.515353
471	1	28.697824	7.434408	9.200897
472	1	27.102150	10.074318	18.264666
473	1	2.368303	5.725651	29.402904
474	1	27.432131	22.477656	7.727623
475	1	17.661243	11.051801	22.444124
476	1	29.585105	30.270642	9.759025
477	1	3.532139	12.154818	5.594331
478	1	20.532099	25.935881	28.539990
479	1	9.152021	21.275471	17.865669
480	1	17.395285	25.755635	19.248385
481	1	14.729544	10.574145	22.184239
482	1	13.329145	3.273721	2.477057
483	1	29.814934	16.859292	12.843496
484	1	24.343043	7.612564	7.207245
485	1	32.029484	28.442049	12.898096
486	1	16.843981	19.916172	18.444018
487	1	6.975972	21.478767	10.606372
488	1	5.098234	24.010694	24.060723
489	1	31.017323	23.161947	1.758365
490	1	28.468056	17.179252	10.714958
491	1	10.729072	12.544096	4.234128
492	1	2.619159	19.904573	28.376803
493	1	4.149850	26.610436	20.879659
494	1	23.360714	8.420786	19.097212
495	1	6.931583	30.891110	8.844034
496	1	5.224307	10.631170	30.728968
497	1	9.358483	2.975186	2.841846
498	1	12.457992	9.900753	12.397201
499	1	10.823222	22.314067	14.367448
500	1	12.027506	23.162763	12.659624
501	1	21.010194	31.849517	12.234500
502	1	4.187896	3.191817	21.473546
503	1	17.435374	16.515701	11.906600
504	1	11.308357	14.936751	5.194008
505	1	29.505745	15.951946	8.752406
506	1	0.307420	13.084064	7.668834
507	1	10.340564	27.385791	16.347125
508	1	2.123734	25.150682	29.995266
509	1	5.775497	18.144992	22.527952
510	1	20.103757	11.535844	17.636575
511	1	4.272108	23.145194	19.599155
512	1	19.542669	6.199202	6.680334
513	1	14.588502	6.680662	11.454784
514	1	16.524984	5.306028	17.351386
515	1	23.566255	19.720123	2.440977
516	1	12.173192	12.226623	13.378357
517	1	26.754115	22.301936	31.454428
518	1	5.463740	31.730982	26.264491
519	1	30.446841	8.414200	32.066767
520	1	20.800015	4.192836	23.359028
521	1	7.262677	20.384932	26.300365
522	1	27.885602	21.796463	18.275733
523	1	3.300731	9.255260	22.959100
524	1	15.419634	6.613292	31.134444
525	1	3.819085	9.775796	27.578220
526	1	23.227634	9.460799	6.845877
527	1	31.576431	26.493792	20.826860
528	1	23.919759	2.541924	29.504831
529	1	17.187618	3.680778	19.217309
530	1	28.796853	5.145465	2.599031
531	1	28.874219	27.998280	27.004591
532	1	2.338562	13.547851	1.904267
533	1	26.299851	9.151574	8.319891
534	1	3.185285	31.515781	27.395050
535	1	6.069442	23.408733	15.099383
536	1	26.925563	28.504942	23.037668
537	1	19.864954	7.542493	1.455796
538	1	23.545885	27.734519	16.019129
539	1	17.293745	10.001881	4.210235
540	1	31.744365	8.652554	25.544820
541	1	3.678181	28.131941	24.646181
542	1	29.483839	7.407554	15.619187
543	1	15.073979	20.219117	28.776729
544	1	24.206759	22.904077	31.233438
545	1	27.420192	19.411346	10.493284
546	1	2.802911	21.117559	-1.189175
547	1	2.925134	23.033553	22.925948
548	1	25.167329	18.631233	19.552850
549	1	21.008727	12.025783	28.252418
550	1	16.323212	24.799750	16.010373
551	1	8.605624	18.662860	30.748661
552	1	26.186009	21.084976	20.005925
553	1	5.620515	13.963875	21.475543
554	1	6.653376	7.960877	17.803242
555	1	6.835636	2.445410	3.132390
556	1	29.835525	19.576810	27.857972
557	1	6.310774	9.019369	23.904395
558	1	2.680696	8.500500	25.662028
559	1	10.051031	31.518544	17.087800
560	1	20.353710	14.386847	19.892151
561	1	25.676990	31.041253	3.959881
562	1	4.921484	30.802927	19.995421
563	1	1.929737	26.629500	4.900227
564	1	27.514165	29.000715	6.311933
565	1	13.413328	15.873535	2.150995
566	1	9.184487	26.694055	2.653330
567	1	31.084249	13.756198	4.547459
568	1	12.242754	30.280161	13.259536
569	1	5.778295	27.803723	32.017934
570	1	24.960415	10.055827	27.246871
571	1	30.974691	21.477503	29.379467
572	1	29.328055	17.637473	17.003040
573	1	22.607053	15.080319	20.408895
574	1	10.715502	1.026661	28.657812
575	1	29.523528	26.208727	16.865535
576	1	22.610093	20.318199	16.654013
577	1	13.043400	20.138656	7.080492
578	1	17.455631	25.463907	8.072876
579	1	27.994455	2.941730	10.117501
580	1	2.929851	31.520167	10.998250
581	1	21.604868	18.714138	11.778828
582	1	15.438065	1.215925	6.454315
583	1	25.180520	23.355308	8.471482
584	1	27.519385	21.024762	25.197792
585	1	1.281616	2.871091	7.845871
586	1	0.859178	5.263292	11.671204
587	1	29.626230	27.211130	12.822722
588	1	6.250701	6.622275	12.604327
589	1	14.100945	2.541537	31.838909
590	1	4.752475	20.996154	14.583074
591	1	31.059967	3.205959	32.110934
592	1	20.051992	10.683178	26.219961
593	1	30.642863	5.741695	4.935341
594	1	21.898554	0.689573	9.948417
595	1	0.953663	3.165180	26.134770
596	1	3.743291	11.609258	0.871692
597	1	3.823955	14.864941	9.273003
598	1	26.172106	25.698548	19.432271
599	1	7.388774	30.167838	27.066197
600	1	23.037419	21.807753	1.441381
601	1	17.958507	6.439216	22.235886
602	1	4.260938	16.243319	21.804293
603	1	19.999107	3.075941	16.075156
604	1	2.491018	8.979988	10.182265
605	1	27.362503	15.660198	12.527869
606	1	14.738032	13.401192	30.628022
607	1	10.258829	4.160654	26.667535
608	1	26.460986	18.995346	5.695112
609	1	9.507723	9.482511	0.999669
610	1	25.588246	8.804924	14.322821
611	1	6.389683	32.041118	11.009341
612	1	23.322837	17.402612	1.713419
613	1	22.359778	12.577550	20.640046
614	1	21.660500	29.039366	15.252803
615	1	13.182835	16.631354	19.103231
616	1	11.965743	31.495880	21.987486
617	1	30.141889	13.015152	24.795161
618	1	23.846594	11.196503	4.952592
619	1	17.796006	22.729226	15.259352
620	1	22.339527	6.440625	8.422757
621	1	4.648842	31.749930	8.880570
622	1	20.332565	4.013804	13.683453
623	1	21.479684	15.394557	5.199562
624	1	5.778299	6.480042	1.915664
625	1	2.708026	17.553021	5.810556
626	1	26.241618	13.431471	27.375571
627	1	8.205103	22.511666	1.125827
628	1	23.752986	25.534971	4.047953
629	1	24.218738	19.977326	4.695403
630	1	31.218973	11.771293	9.577767
631	1	30.926429	16.221926	15.226135
632	1	28.679520	8.722623	6.963832
633	1	21.223133	21.092413	28.523366
634	1	17.746702	10.314581	8.468017
635	1	12.160926	15.189659	20.816170
636	1	20.494059	15.148736	25.427280
637	1	15.117623	9.300717	7.958524
638	1	7.028201	28.407947	9.184201
639	1	18.054884	6.083066	2.590317
640	1	24.567878	16.986329	8.599298
641	1	6.446546	0.540688	30.614301
642	1	10.480825	8.266398	13.019081
643	1	8.787179	31.610614	7.270700
644	1	8.101592	11.747806	20.557158
645	1	14.255076	11.605366	26.401154
646	1	22.473580	21.666933	23.325021
647	1	14.267737	22.575856	11.839290
648	1	2.076426	18.335339	26.505140
649	1	5.740198	16.457951	28.371658
650	1	27.064376	6.017760	0.493461
651	1	23.729262	8.652623	4.346116
652	1	4.374668	16.303668	17.308802
653	1	21.966495	29.244741	17.818507
654	1	22.354416	19.323797	27.125722
655	1	16.387103	21.335790	24.617102
656	1	4.615692	23.771784	1.400189
657	1	25.971775	17.307370	14.137159
658	1	16.627283	14.148007	14.157775
659	1	1.575697	11.781354	16.412786
660	1	26.639364	4.411767	5.569203
661	1	31.094163	14.415076	22.783255
662	1	3.300272	30.706616	6.294847
663	1	16.256638	16.673792	26.779225
664	1	18.146220	26.480064	5.972536
665	1	1.659281	20.335559	1.084075
666	1	3.874912	13.386626	23.160931
667	1	2.578761	1.436979	5.880312
668	1	9.683351	30.405203	22.520261
669	1	11.422564	22.405765	19.326014
670	1	9.854826	13.394696	14.042850
671	1	17.068026	29.757342	29.566173
672	1	29.344682	12.414487	16.010452
673	1	26.840157	0.750896	9.336108
674	1	27.775936	5.778700	20.320525
675	1	21.808151	23.674679	32.096426
676	1	14.042848	28.427661	12.639220
677	1	5.357749	30.967470	28.824073
678	1	15.016035	18.720999	30.936965
679	1	26.668557	7.574268	18.322237
680	1	14.670620	17.603319	25.020348
681	1	8.859162	8.351880	19.198923
682	1	2.955153	29.225550	4.140840
683	1	30.417940	5.069101	26.692496
684	1	3.502943	17.170627	15.045144
685	1	17.289117	29.798069	22.347031
686	1	8.794645	0.358365	12.522860
687	1	31.954354	1.004452	18.446209
688	1	21.301903	23.240413	2.849749
689	1	18.538911	12.558764	12.584448
690	1	13.242268	0.780999	14.541594
691	1	30.717460	6.431506	10.556817
692	1	24.082952	22.062368	12.038062
693	1	31.461622	13.326215	17.309571
694	1	15.307001	31.824724	26.269408
695	1	10.822755	22.808820	16.795209
696	1	5.784633	30.666951	15.560693
697	1	0.338018	17.750026	12.827696
698	1	22.842195	30.090399	23.303896
699	1	9.253831	29.766681	8.846964
700	1	6.567372	20.164139	23.754836
701	1	27.636483	30.703744	11.605204
702	1	12.363145	17.020266	4.130615
703	1	21.467204	4.170738	6.984772
704	1	29.990666	17.745890	23.607267
705	1	16.788861	10.932282	11.304658
706	1	22.783589	30.962953	14.010067
707	1	25.279966	27.055067	27.014902
708	1	3.241788	29.577498	29.233890
709	1	1.156520	19.304783	21.279069
710	1	5.878443	14.269987	26.814668
711	1	3.943261	24.347793	28.254022
712	1	20.042307	30.915991	14.376181
713	1	3.978064	2.494027	8.089915
714	1	-0.644144	21.766627	24.428343
715	1	1.622281	23.193217	9.751379
716	1	5.339020	28.184214	29.617388
717	1	23.667685	25.454389	19.774256
718	1	5.538623	6.128953	10.152527
719	1	21.720290	20.693755	3.728471
720	1	6.785121	21.098572	5.089665
721	1	18.285680	24.432728	27.827707
722	1	9.918246	15.359192	7.245676
723	1	5.005153	16.571841	5.928068
724	1	18.467517	21.349281	17.198591
725	1	2.548406	7.966793	14.569149
726	1	21.217193	24.327142	15.825373
727	1	7.979315	31.424259	0.678119
728	1	14.256093	29.458954	26.592309
729	1	31.153737	30.493010	19.076403
730	1	30.204336	9.044022	13.793281
731	1	28.803784	18.077435	21.277284
732	1	1.478854	15.644403	15.902830
733	1	24.731313	2.860820	22.544164
734	1	6.739921	27.867326	11.891038
735	1	22.277909	10.351592	17.238475
736	1	26.620150	1.131281	11.930154
737	1	26.787802	8.305383	10.720507
738	1	11.948923	22.150960	8.329109
739	1	26.008695	10.648067	10.395644
740	1	16.977387	2.726560	4.699203
741	1	11.763117	16.245292	32.055881
742	1	25.055752	5.263759	22.988950
743	1	31.404246	29.048036	26.661184
744	1	4.905333	5.727614	21.503318
745	1	7.482157	15.912830	6.606613
746	1	19.904589	17.084108	15.744673
747	1	27.917783	13.934302	19.708482
748	1	15.514414	20.851886	6.587717
749	1	8.529944	22.691464	6.036577
750	1	10.111889	11.822506	22.446376
751	1	11.892505	29.185419	31.159908
752	1	16.420548	7.524758	3.990028
753	1	27.226407	26.224879	1.584198
754	1	10.988234	4.226840	17.264479
755	1	28.892230	0.483732	8.263765
756	1	21.743019	27.892111	10.668658
757	1	0.492287	3.739942	5.382207
758	1	18.704887	12.671160	27.162865
759	1	6.098172	22.848597	31.534535
760	1	12.193122	24.810226	24.523516
761	1	2.851557	20.493724	23.001513
762	1	3.741307	18.073883	1.465815
763	1	28.246251	26.916151	14.952368
764	1	10.128361	27.349374	13.714896
765	1	30.200773	11.482849	13.830728
766	1	27.211874	13.832316	2.196369
767	1	11.692250	29.295855	20.947439
768	1	12.604490	30.836622	16.112234
769	1	15.474080	21.206227	31.296438
770	1	10.933397	4.744674	24.273948
771	1	14.723344	26.453019	31.112288
772	1	28.354836	7.682879	1.542085
773	1	31.286812	0.329912	8.846330
774	1	6.610862	22.100089	7.960975
775	1	31.486698	22.122674	5.804059
776	1	29.813140	2.831667	2.247561
777	1	25.144934	12.101117	29.300124
778	1	8.475526	23.588249	14.262683
779	1	17.690058	29.574995	14.124522
780	1	12.641167	25.020353	31.955305
781	1	21.255409	14.764237	15.640935
782	1	19.063776	-0.390855	23.568383
783	1	1.246035	3.359718	17.611904
784	1	17.734853	3.780685	2.682443
785	1	15.774365	4.479857	15.239948
786	1	10.107355	27.884659	22.436024
787	1	10.991641	26.951222	24.782196
788	1	26.367055	27.093777	9.894909
789	1	12.962315	13.098480	15.833185
790	1	17.096685	17.181587	31.338862
791	1	17.218812	8.762949	17.677494
792	1	26.512062	11.553763	1.513558
793	1	5.648193	25.068329	3.764020
794	1	23.151388	27.975336	3.915466
795	1	21.517111	28.044796	24.708501
796	1	24.438378	26.638656	2.018127
797	1	23.671319	8.622123	1.659628
798	1	14.418216	32.048924	12.278642
799	1	1.635849	18.126082	8.728662
800	1	12.938131	21.721542	17.348630
801	1	27.405704	15.695704	26.969780
802	1	23.528332	21.355749	8.888121
803	1	23.763266	31.869911	5.756235
804	1	19.965668	17.245583	4.228008
805	1	9.025744	18.359247	25.364489
806	1	31.840410	27.695958	1.224916
807	1	0.323632	5.183917	21.414454
808	1	2.859114	12.048087	13.379161
809	1	28.446127	14.364564	4.414997
810	1	15.324510	24.980757	5.498507
811	1	1.262630	8.195306	7.391304
812	1	26.401636	1.127668	23.141559
813	1	27.905533	30.866396	23.928552
814	1	13.213884	4.261776	8.101792
815	1	20.391956	16.318444	21.429410
816	1	30.041361	22.336601	12.068340
817	1	14.107266	7.453676	25.033148
818	1	8.698298	3.398932	9.273005
819	1	10.166269	13.593664	20.626129
820	1	6.477614	9.586271	19.847103
821	1	9.973799	20.291975	13.336033
822	1	16.310912	11.683689	13.640574
823	1	27.409244	16.695657	5.177565
824	1	28.870227	18.393843	6.242309
825	1	21.867551	31.344265	16.333984
826	1	10.498693	25.405317	22.348994
827	1	24.901801	15.477717	23.912598
828	1	31.989499	23.535904	26.181691
829	1	13.097622	10.542404	3.321592