ITEM: TIMESTEP
0
ITEM: NUMBER OF ATOMS
2000
ITEM: BOX BOUNDS pp pp pp
0.299875	32.130125
0.299875	32.130125
0.299875	32.130125
ITEM: ATOMS id type x y z
1	1	8.077897	21.770856	22.156773
2	1	25.708773	0.664045	28.741438
3	1	19.929314	11.647398	8.397619
4	1	16.144388	26.447412	11.921497
5	1	23.428757	19.817131	24.677387
6	1	3.814302	19.132983	21.337135
7	1	22.817332	23.683771	25.423002
8	1	9.607346	18.577205	18.013499
9	1	15.064770	16.990840	17.023140
10	1	21.790809	3.694220	31.142420
11	1	19.489705	18.767714	8.037252
12	1	6.581225	4.750068	31.822077
13	1	22.354144	11.943171	24.175151
14	1	4.070106	6.550448	5.485079
15	1	3.427467	30.680054	25.079813
16	1	26.008937	19.606474	24.080990
17	1	7.368930	26.499384	30.376977
18	1	15.534115	29.574700	6.345271
19	1	27.912407	18.327458	12.932797
20	1	2.980324	24.694713	8.583200
21	1	31.709543	15.293032	12.537530
22	1	23.546207	28.634007	13.434909
23	1	8.851366	29.348248	17.436620
24	1	20.573883	31.534292	18.509538
25	1	16.628172	29.356380	16.591755
26	1	23.218536	17.289133	28.145991
27	1	30.328674	28.668275	5.166284
28	1	24.312363	26.319188	14.223351
29	1	9.087626	29.008846	20.141811
30	1	17.974878	26.914501	16.299231
31	1	27.907985	3.001298	12.649891
32	1	25.704400	1.325000	31.271193
33	1	21.323280	3.777864	19.336735
34	1	26.184446	20.545304	3.530022
35	1	24.787742	13.029509	24.482948
36	1	5.869168	0.640684	1.560229
37	1	22.020753	18.872917	22.976234
38	1	18.125780	31.814473	1.108386
39	1	25.521181	17.539139	25.545492
40	1	23.656589	18.375251	17.704645
41	1	28.898315	0.588087	21.995673
42	1	17.273913	18.723570	6.749024
43	1	8.437065	26.565863	23.749552
44	1	24.247824	21.449780	14.887279
45	1	22.761647	16.150869	22.768679
46	1	16.251034	27.419525	4.867260
47	1	21.507981	19.223940	18.787383
48	1	16.960991	14.995898	16.476161
49	1	21.543276	9.550846	0.715802
50	1	25.096121	10.275198	2.887773
51	1	10.982268	28.204676	3.642726
52	1	1.377494	7.400659	19.429715
53	1	5.524076	8.378119	26.110908
54	1	5.928723	3.717593	9.685029
55	1	12.390069	16.373212	25.379318
56	1	26.272961	1.740034	20.680490
57	1	15.109351	14.359958	9.019173
58	1	18.771838	15.199124	23.594830
59	1	11.132845	22.349722	25.654831
60	1	21.071117	18.401160	2.204753
61	1	11.585460	17.613282	6.563672
62	1	9.152943	9.057317	15.069217
63	1	13.792552	28.234583	24.505029
64	1	5.135338	4.468097	19.382256
65	1	8.678225	13.286755	2.318917
66	1	24.592807	25.635837	8.756551
67	1	25.087957	6.504333	5.066212
68	1	30.056066	25.698950	8.415388
69	1	25.455515	31.151475	10.854114
70	1	19.061060	3.535735	11.344328
71	1	22.199041	25.473099	21.634644
72	1	4.608182	14.101410	1.195040
73	1	22.222387	2.374747	22.517951
74	1	2.311955	21.548502	14.370150
75	1	30.557177	2.872451	22.179600
76	1	24.009834	18.527129	6.744050
77	1	23.441393	8.457310	31.031758
78	1	23.074884	22.730802	16.947245
79	1	12.117232	24.430414	20.583765
80	1	1.006585	28.598731	15.420100
81	1	7.280896	19.564977	18.377614
82	1	0.800109	20.126710	30.330126
83	1	24.140758	11.268883	19.017397
84	1	10.548938	30.245455	10.977679
85	1	28.887176	30.630883	19.758895
86	1	13.033898	13.500274	2.984828
87	1	30.665498	6.965882	2.708323
88	1	23.373357	4.193737	1.721530
89	1	15.829471	17.659105	29.041368
90	1	14.424096	2.348032	4.652598
91	1	2.797171	3.247770	30.150565
92	1	0.811446	28.830903	20.053585
93	1	14.762469	15.673287	21.047041
94	1	7.921015	30.046954	11.018356
95	1	19.312831	14.650354	11.515324
96	1	1.280059	19.111691	11.082618
97	1	6.044149	18.607867	30.003825
98	1	10.059369	5.441642	9.989034
99	1	6.364598	30.069506	2.285667
100	1	19.485383	17.747156	13.055509
101	1	19.191196	11.823419	31.912609
102	1	21.309816	16.864051	31.956361
103	1	7.947077	18.975347	3.636729
104	1	7.079780	16.417403	26.140364
105	1	6.936411	25.069395	25.114624
106	1	20.022131	18.880950	21.427365
107	1	25.522922	4.128121	20.521750
108	1	22.549399	20.884032	13.170577
109	1	5.534196	23.471927	26.418169
110	1	4.852211	20.800687	12.012240
111	1	16.326398	3.392778	28.141421
112	1	13.498818	4.054039	24.791003
113	1	20.298338	1.578105	0.440744
114	1	19.995538	5.458264	30.408978
115	1	7.153075	11.852032	29.950166
116	1	10.615671	17.250949	23.636570
117	1	6.567661	7.812391	8.867983
118	1	20.829830	17.177989	27.165865
119	1	5.253993	29.329068	7.692518
120	1	30.292547	20.243732	7.211246
121	1	20.265454	8.730065	13.029933
122	1	23.315969	30.344359	3.510352
123	1	1.211252	15.607002	8.380440
124	1	2.963923	29.460163	8.412172
125	1	8.306330	16.209297	23.834608
126	1	1.022226	4.759961	31.487795
127	1	9.622730	4.542576	22.396214
128	1	0.634223	8.693743	3.178074
129	1	3.265813	0.429592	29.984294
130	1	23.576031	4.587391	18.802231
131	1	28.756715	5.323626	6.613788
132	1	19.531261	29.515936	19.572757
133	1	31.930915	4.599087	9.438352
134	1	3.648505	11.222409	10.820863
135	1	17.343713	5.161663	26.332360
136	1	2.159992	3.548711	15.315657
137	1	6.932436	15.769962	12.002217
138	1	12.071428	9.864903	31.654479
139	1	13.959795	0.729317	22.225098
140	1	26.797591	12.606280	9.401629
141	1	16.604586	4.639358	0.497514
142	1	31.994763	7.743356	15.165705
143	1	1.900625	26.544602	16.688618
144	1	27.443417	9.679832	2.958937
145	1	9.405407	24.115967	2.608793
146	1	6.684330	27.409211	2.844865
147	1	13.806625	18.275113	20.750048
148	1	6.216777	13.858284	9.937284
149	1	16.236534	6.112567	13.327914
150	1	16.746468	29.733889	27.100936
151	1	27.948528	7.581716	13.619669
152	1	7.466162	8.894580	13.251687
153	1	21.124006	11.057523	30.564379
154	1	29.045807	29.713164	21.998450
155	1	24.639533	15.563537	12.842960
156	1	6.525836	21.434849	16.643924
157	1	8.832002	26.177902	26.235696
158	1	21.108274	5.746701	3.030842
159	1	28.282050	12.856425	32.057475
160	1	27.887977	16.237649	2.723404
161	1	31.797388	18.733103	16.829244
162	1	31.453576	1.496687	4.399562
163	1	28.047298	21.162241	12.410585
164	1	10.337590	29.571435	15.338005
165	1	3.659036	23.231479	30.724186
166	1	4.330926	28.694675	2.095194
167	1	22.096379	9.894975	11.662496
168	1	19.195438	4.580324	18.012217
169	1	11.976008	17.894962	17.447341
170	1	6.369996	26.076333	16.525869
171	1	27.982881	29.757955	31.253250
172	1	14.338014	11.553134	11.856208
173	1	8.423882	15.244876	14.038526
174	1	3.123931	24.856153	3.201272
175	1	8.992556	5.891056	25.343227
176	1	27.068299	24.268790	23.084115
177	1	14.414947	15.359291	28.644044
178	1	21.939096	15.792202	29.745062
179	1	25.401008	11.308218	14.496887
180	1	21.815114	24.665492	4.972276
181	1	25.847003	7.691913	2.969971
182	1	16.315178	10.963263	6.428822
183	1	29.662636	25.230502	1.372921
184	1	23.113555	10.657173	29.099261
185	1	20.364787	26.607996	22.777017
186	1	4.256276	12.923569	3.345692
187	1	4.288201	16.453647	26.242116
188	1	5.847910	12.875931	24.573097
189	1	2.367868	27.264423	2.357494
190	1	9.316176	6.050056	27.855528
191	1	12.982323	7.606724	6.259370
192	1	26.853126	16.581792	20.135907
193	1	9.866610	10.265268	7.683128
194	1	17.661082	7.323394	16.086754
195	1	17.089410	14.558674	5.460503
196	1	31.248505	10.848930	4.194704
197	1	14.929817	30.846766	28.753381
198	1	26.717471	2.842927	29.503303
199	1	19.283134	9.158150	18.746126
200	1	24.459805	17.961866	23.054550
201	1	12.211302	15.607929	27.706963
202	1	16.323628	25.260092	29.473525
203	1	26.643484	31.940939	16.447599
204	1	17.985564	29.581430	9.691555
205	1	9.201343	0.305108	30.507885
206	1	16.336993	1.690897	8.697673
207	1	30.713967	0.603770	28.756849
208	1	17.581484	15.341585	9.495322
209	1	5.845931	11.927598	16.191920
210	1	21.484117	12.003635	15.536865
211	1	28.720236	25.930636	10.698482
212	1	23.755628	15.587953	3.758963
213	1	9.076935	17.687454	7.625374
214	1	14.121641	23.787321	3.521387
215	1	1.872653	26.776098	19.312311
216	1	10.576900	25.167545	17.689409
217	1	16.686013	22.270617	11.054593
218	1	17.798939	3.418699	9.323584
219	1	17.688205	10.972389	17.557792
220	1	6.527196	18.243548	25.049070
221	1	19.800769	21.920570	21.064558
222	1	17.063706	27.486686	30.735369
223	1	29.393380	8.214865	11.505889
224	1	29.538023	21.371555	3.056737
225	1	25.140080	25.926781	29.479609
226	1	7.179252	26.106692	9.566985
227	1	17.438626	31.670992	15.405239
228	1	7.005953	20.622137	31.587248
229	1	15.101983	3.090988	17.639847
230	1	1.652866	13.741167	12.219347
231	1	8.203261	30.561748	4.815590
232	1	31.892366	12.722180	2.465498
233	1	2.927704	0.605063	0.985002
234	1	6.524004	1.353137	16.230497
235	1	15.202844	3.043374	23.034473
236	1	13.385561	17.754886	8.205527
237	1	17.950093	31.554063	17.982515
238	1	2.914330	15.681419	24.010162
239	1	6.173255	7.707112	6.523981
240	1	1.481174	22.622007	18.658075
241	1	19.154006	21.925597	10.709770
242	1	18.777859	21.763177	27.848577
243	1	14.099273	9.334317	10.360592
244	1	2.439439	11.568052	22.288430
245	1	31.199212	1.298853	12.962955
246	1	7.945886	24.487145	7.626894
247	1	14.656087	15.083215	15.406857
248	1	10.519513	13.266830	11.658742
249	1	25.810307	23.598710	29.441983
250	1	24.901967	16.092916	21.438520
251	1	12.813691	10.824517	17.274356
252	1	14.846363	15.784266	12.907861
253	1	21.467166	9.687212	4.912572
254	1	10.709081	9.090761	17.352261
255	1	2.647785	5.089085	22.709856
256	1	12.876244	25.285010	5.474216
257	1	14.021072	25.661549	15.467507
258	1	21.005767	25.952068	31.202410
259	1	4.456392	27.989507	15.765785
260	1	6.129323	29.857597	24.520058
261	1	9.690496	29.688997	31.525482
262	1	10.459268	13.813688	28.144398
263	1	21.769317	21.272786	10.716914
264	1	9.975321	8.163256	3.024535
265	1	5.531968	24.589829	8.246655
266	1	2.035309	16.264451	30.557140
267	1	2.221571	22.867462	2.104523
268	1	29.813992	5.560544	22.376307
269	1	5.139169	12.010678	28.220336
270	1	5.631324	14.352771	17.270865
271	1	12.591819	20.444875	20.741957
272	1	16.798921	9.852809	15.322431
273	1	11.815050	5.224263	28.518182
274	1	9.779146	20.272969	26.922204
275	1	4.205854	0.954146	15.331893
276	1	25.991535	4.595144	13.738871
277	1	24.926223	25.269755	24.792336
278	1	2.388440	17.598955	17.198354
279	1	27.346508	29.800008	15.782919
280	1	7.754522	10.224663	11.145094
281	1	8.673912	12.038182	32.068457
282	1	26.588388	18.983740	21.559431
283	1	27.321353	14.967577	9.959075
284	1	18.339568	25.359186	23.303902
285	1	19.635447	7.021549	17.187961
286	1	2.311915	3.089530	1.138214
287	1	30.937986	1.823886	6.856726
288	1	29.494174	14.867337	11.178081
289	1	29.642352	2.630930	14.598569
290	1	6.998730	1.923709	22.504229
291	1	5.873891	2.525431	5.542657
292	1	6.241989	31.454319	6.442798
293	1	1.713393	2.541770	3.627662
294	1	29.840175	9.223248	2.826270
295	1	9.935382	12.738406	24.950009
296	1	23.229842	14.379013	31.860590
297	1	17.428918	14.430362	25.913979
298	1	18.895750	8.708402	26.970476
299	1	18.545244	7.624266	9.172218
300	1	13.318483	27.408933	1.124546
301	1	6.138723	2.102238	25.755332
302	1	4.925930	4.206244	26.496605
303	1	8.116586	15.300555	27.979947
304	1	8.008472	6.201822	6.085339
305	1	2.644640	15.992427	1.126712
306	1	4.029623	25.183678	15.797869
307	1	1.167296	23.947677	4.623299
308	1	10.873922	18.630366	31.541979
309	1	1.233666	11.900438	0.354571
310	1	3.034969	25.374152	23.471924
311	1	27.597448	11.302780	7.107897
312	1	2.275296	15.711767	13.528874
313	1	10.683471	30.781776	3.786764
314	1	17.558082	29.593255	31.928580
315	1	21.835359	11.407594	6.601541
316	1	13.656258	11.182577	6.594078
317	1	4.363885	31.393875	12.978259
318	1	14.659042	11.902561	18.838178
319	1	13.101307	19.202980	10.155522
320	1	23.180596	31.874800	18.613014
321	1	26.948165	21.570292	22.548868
322	1	29.228057	16.573787	19.340020
323	1	29.009108	4.514679	24.552364
324	1	12.892685	29.320843	28.683446
325	1	12.044279	1.650753	20.201256
326	1	1.309203	6.806561	9.713745
327	1	12.114629	8.969060	24.839002
328	1	28.563708	27.739044	8.601523
329	1	19.294441	14.910308	4.177303
330	1	29.149722	8.642760	17.955474
331	1	7.183856	23.123457	3.452000
332	1	4.662354	10.320859	3.160693
333	1	10.907213	17.856103	27.183791
334	1	1.849121	30.174609	21.770858
335	1	7.547118	28.691223	22.686816
336	1	29.022038	15.562378	6.507440
337	1	12.368739	2.651691	29.686898
338	1	20.632350	11.296540	22.294114
339	1	7.674840	29.234604	6.862806
340	1	25.895436	24.551176	10.767817
341	1	10.931043	14.105420	9.334617
342	1	24.375575	1.358540	10.089076
343	1	29.439556	0.607880	2.989148
344	1	17.493365	17.918246	9.346692
345	1	11.447613	20.572526	1.630479
346	1	7.436389	16.487589	30.210328
347	1	27.440992	20.107152	27.729772
348	1	28.338704	16.615988	14.961195
349	1	7.025749	2.871078	29.895741
350	1	16.882857	31.706580	12.748134
351	1	22.632915	7.888783	21.532535
352	1	1.862159	30.748711	31.312990
353	1	8.162588	16.060915	2.515899
354	1	22.496270	10.308315	26.443768
355	1	17.880607	2.294465	0.486470
356	1	20.917899	13.440275	13.493426
357	1	17.731556	8.629999	2.063748
358	1	21.629460	12.316254	1.272753
359	1	15.992469	29.776668	24.630148
360	1	2.846065	3.989235	27.659434
361	1	10.671337	26.544127	5.372490
362	1	25.432438	2.565896	27.198756
363	1	24.631459	9.857582	12.318834
364	1	17.346974	25.688076	25.588256
365	1	27.795828	25.245883	3.893162
366	1	28.777191	10.197238	4.992780
367	1	28.397888	19.612472	23.268311
368	1	27.595818	20.566121	1.290177
369	1	2.508241	2.002446	19.472361
370	1	27.652578	3.421937	19.091090
371	1	25.172113	24.428927	27.008461
372	1	6.465149	9.512984	15.542314
373	1	29.205089	0.636828	5.532387
374	1	25.655203	24.654721	0.408466
375	1	19.296719	16.339256	30.583108
376	1	27.970039	1.527761	27.584514
377	1	5.724489	18.739772	13.772201
378	1	7.299878	2.404610	11.375648
379	1	3.118049	0.442281	21.386420
380	1	11.800737	4.905493	30.955472
381	1	16.840616	27.199738	9.730927
382	1	5.684144	15.195397	7.880943
383	1	3.362798	28.772934	19.990768
384	1	20.600129	6.531812	22.192495
385	1	30.637782	24.238183	21.018137
386	1	25.616000	28.792548	11.739274
387	1	15.209028	5.206668	19.348454
388	1	22.586818	25.931144	24.060797
389	1	6.794244	30.359354	13.059715
390	1	29.332014	4.858982	9.057669
391	1	18.075576	23.186677	8.735576
392	1	21.279668	8.049747	26.173785
393	1	14.030561	25.675536	19.875874
394	1	26.198139	25.316048	15.187004
395	1	16.728282	1.307722	19.079837
396	1	21.105462	5.069354	11.600349
397	1	4.181149	27.340613	11.883190
398	1	6.462164	3.917729	16.005823
399	1	20.734909	4.605651	25.700077
400	1	21.077886	29.275274	12.765454
401	1	23.047947	11.739777	13.034888
402	1	29.850768	29.870640	12.388925
403	1	18.275262	12.561510	10.054756
404	1	13.701480	3.046927	15.560097
405	1	21.713882	28.411810	7.699483
406	1	16.036940	16.437150	1.772294
407	1	3.608209	13.861508	25.645404
408	1	17.364256	3.915856	13.129598
409	1	26.854588	11.150631	30.818296
410	1	9.415845	4.681656	32.007275
411	1	8.303502	17.588919	19.908094
412	1	4.517916	16.806992	12.603123
413	1	16.446468	2.788214	30.455810
414	1	10.620652	23.924665	4.864907
415	1	0.654878	15.439589	2.754297
416	1	20.961025	25.701244	11.120149
417	1	24.081332	11.891136	16.508400
418	1	7.852539	19.791692	8.645807
419	1	15.290792	7.528163	18.415560
420	1	22.818996	14.406732	24.814597
421	1	14.670079	25.129286	1.505353
422	1	9.694712	31.148608	26.713114
423	1	24.636038	14.489741	17.122160
424	1	31.354983	7.401611	17.471097
425	1	28.117577	28.370660	11.054392
426	1	23.907072	30.523864	25.691660
427	1	27.670342	12.228199	14.173284
428	1	22.970680	28.541606	26.795173
429	1	18.659828	13.123629	29.714940
430	1	30.546005	16.658936	1.633913
431	1	30.722801	19.475198	4.870869
432	1	31.791239	21.970878	8.313658
433	1	23.718361	31.909333	30.064683
434	1	21.695461	15.001662	10.353943
435	1	5.032434	13.029047	30.835034
436	1	29.382098	24.773318	24.431911
437	1	30.524465	12.384674	0.329443
438	1	15.247916	19.107418	8.502263
439	1	25.334636	9.375333	19.880832
440	1	11.624559	5.712406	21.291795
441	1	30.336441	9.649724	29.596244
442	1	24.955292	16.399849	6.047070
443	1	4.465456	25.899823	25.774758
444	1	31.077853	17.962583	26.306438
445	1	31.649911	19.599039	9.097662
446	1	13.621613	24.557902	7.877135
447	1	22.229302	19.345854	31.995066
448	1	19.683439	1.950919	22.296277
449	1	25.422979	23.210029	16.086750
450	1	5.131231	4.374025	12.042267
451	1	2.477859	19.618263	15.906363
452	1	23.529266	20.725193	19.187508
453	1	23.983347	19.702915	11.049804
454	1	12.352029	14.809204	30.082661
455	1	30.433002	2.590018	9.161396
456	1	12.738262	4.189277	19.432503
457	1	13.833501	8.321193	0.674789
458	1	8.360718	6.467611	3.430053
459	1	11.161245	17.906303	13.607922
460	1	32.060774	21.400129	10.802230
461	1	15.920964	31.758869	20.841545
462	1	11.844375	22.538986	3.414207
463	1	2.842717	24.623806	18.127739
464	1	29.527333	20.302247	16.935912
465	1	26.054758	27.267128	7.303167
466	1	12.768528	17.659704	30.072149
467	1	4.557470	29.743704	17.804667
468	1	2.727263	4.855999	25.177352
469	1	19.623496	19.423945	27.375479
470	1	15.359712	4.111155	9.547529
471	1	28.706574	7.427015	9.208744
472	1	27.109220	10.082740	18.277721
473	1	2.416052	5.756374	29.491362
474	1	27.453031	22.474239	7.844041
475	1	17.705017	11.049278	22.406568
476	1	29.532559	30.255225	9.817953
477	1	3.438126	12.083247	5.535025
478	1	20.532281	25.932746	28.547774
479	1	9.135399	21.276339	17.892975
480	1	17.378679	25.737831	19.249439
481	1	14.769295	10.573021	22.154766
482	1	13.161203	3.584620	2.889229
483	1	29.838351	16.788384	12.863321
484	1	24.338364	7.619841	7.209154
485	1	31.984390	28.414183	12.923264
486	1	16.832636	19.917978	18.467887
487	1	6.978647	21.439158	10.600273
488	1	4.979184	23.933146	24.013706
489	1	30.974159	23.164735	1.767556
490	1	28.488127	17.125198	10.718150
491	1	10.738255	12.588590	4.116721
492	1	2.585161	19.952980	28.402129
493	1	4.106516	26.530576	20.789154
494	1	23.342869	8.436834	19.102459
495	1	6.909670	30.839142	8.849083
496	1	5.223849	10.545401	30.827934
497	1	9.650084	2.357815	2.738190
498	1	12.494401	9.818692	12.401508
499	1	10.794455	22.250360	14.369077
500	1	12.003457	23.127144	12.665063
501	1	20.966998	31.875005	12.242552
502	1	4.185806	3.225108	21.515269
503	1	17.428449	16.503778	11.899604
504	1	11.340025	15.003313	5.102819
505	1	29.545607	15.887330	8.739183
506	1	0.325726	13.053764	7.766518
507	1	10.322185	27.359005	16.342336
508	1	2.058847	25.143989	29.959652
509	1	5.781453	18.097493	22.530402
510	1	20.088090	11.545347	17.618056
511	1	4.215957	23.137119	19.561382
512	1	19.541718	6.226826	6.688265
513	1	14.515665	6.669494	11.476972
514	1	16.576302	5.406729	17.334181
515	1	23.570550	19.747347	2.461003
516	1	12.149386	12.188437	13.345090
517	1	26.750158	22.313153	31.449225
518	1	5.448095	31.732950	26.290372
519	1	30.480535	8.408167	32.104346
520	1	20.805478	4.211647	23.365643
521	1	7.080604	20.532264	26.220585
522	1	27.794856	21.817362	18.270963
523	1	3.350600	9.300184	22.957045
524	1	15.384298	6.596987	31.129240
525	1	3.851847	9.750989	27.679863
526	1	23.223151	9.468034	6.840740
527	1	31.591793	26.512809	20.805506
528	1	23.925703	2.556897	29.519551
529	1	17.193954	3.705421	19.202550
530	1	28.773179	5.161745	2.639867
531	1	28.890582	28.062110	27.036554
532	1	2.323799	13.591240	1.871634
533	1	26.289591	9.165781	8.312156
534	1	3.202211	31.529317	27.438322
535	1	6.076700	23.408513	15.092002
536	1	26.949658	28.535350	23.060628
537	1	19.856186	7.561105	1.454961
538	1	23.512881	27.773914	16.065899
539	1	17.276552	10.030505	4.156410
540	1	31.832276	8.741171	25.669635
541	1	3.662533	28.128404	24.660753
542	1	29.476914	7.404791	15.644021
543	1	15.081470	20.346416	28.748441
544	1	24.192960	22.934336	31.237447
545	1	27.450193	19.370350	10.503246
546	1	2.743126	21.146221	-1.138556
547	1	2.645396	22.949525	22.982445
548	1	25.221277	18.653144	19.593944
549	1	21.022844	12.028374	28.250339
550	1	16.334666	24.796479	16.025529
551	1	8.564091	18.718662	30.658978
552	1	26.263834	21.100304	20.059318
553	1	5.643245	13.938674	21.474511
554	1	6.659437	7.956962	17.815749
555	1	6.929109	2.478503	3.140724
556	1	29.740876	19.639726	28.008762
557	1	6.301050	9.011138	23.928809
558	1	2.695818	8.555588	25.712849
559	1	10.032437	31.511087	17.069296
560	1	20.364467	14.425525	19.900107
561	1	25.651794	31.010308	3.989819
562	1	4.942168	30.805975	19.982999
563	1	1.913789	26.578425	4.900637
564	1	27.309913	29.048597	6.291309
565	1	13.438402	15.962015	2.102215
566	1	9.224877	26.589045	2.598134
567	1	31.028363	13.825052	4.404432
568	1	12.219239	30.244945	13.268607
569	1	5.918083	27.939988	32.143937
570	1	24.967930	10.071859	27.261407
571	1	30.941393	21.537368	29.470374
572	1	29.388790	17.635411	17.015320
573	1	22.626783	15.117918	20.414597
574	1	10.660281	0.967498	28.634530
575	1	29.544906	26.392108	17.015188
576	1	22.632062	20.333113	16.658962
577	1	13.070537	20.117448	7.136682
578	1	17.445854	25.456459	8.089665
579	1	27.986198	2.941974	10.129162
580	1	2.842638	31.492179	10.840542
581	1	21.628344	18.722722	11.791660
582	1	15.430378	1.221053	6.507176
583	1	25.173154	23.346487	8.494762
584	1	27.603945	21.072796	25.175136
585	1	1.230870	2.917333	7.978543
586	1	0.836221	5.255812	11.710071
587	1	29.573976	27.235391	12.850438
588	1	6.260656	6.563958	12.641415
589	1	14.159137	2.372215	31.590987
590	1	4.750747	20.998010	14.557088
591	1	31.123450	3.210653	32.101757
592	1	20.062046	10.697187	26.222054
593	1	30.583796	5.754225	4.925178
594	1	21.860321	0.708705	9.944177
595	1	0.965441	3.206560	26.204527
596	1	3.781832	11.670549	0.909462
597	1	3.828041	14.823942	9.201830
598	1	26.233655	25.731863	19.422898
599	1	7.370398	30.162271	26.997660
600	1	23.031571	21.821849	1.446720
601	1	17.978283	6.451416	22.240675
602	1	4.263441	16.186775	21.785567
603	1	20.006358	3.090903	16.061937
604	1	2.482718	8.975316	10.227221
605	1	27.378243	15.626345	12.537515
606	1	14.769350	13.466438	30.616177
607	1	10.243518	4.173564	26.660233
608	1	26.452427	18.981215	5.726821
609	1	9.649597	9.637745	0.895754
610	1	25.575287	8.820022	14.341124
611	1	6.351642	32.012619	10.967708
612	1	23.315628	17.440452	1.717642
613	1	22.371416	12.610547	20.648833
614	1	21.633952	29.058517	15.261056
615	1	13.199976	16.631172	19.071774
616	1	11.960012	31.489454	21.999749
617	1	30.143613	12.974731	24.812248
618	1	23.853621	11.199929	4.948143
619	1	17.794785	22.719488	15.276494
620	1	22.316952	6.440848	8.415816
621	1	4.564768	31.709019	8.685383
622	1	20.341600	4.028602	13.672616
623	1	21.484783	15.389914	5.207557
624	1	5.962683	6.410119	1.979610
625	1	2.581748	17.521614	5.942310
626	1	26.230873	13.502341	27.340638
627	1	8.176329	22.534013	1.071764
628	1	23.722888	25.533356	4.050424
629	1	24.206934	19.968123	4.731643
630	1	31.211888	11.743523	9.622835
631	1	30.908071	16.021787	15.299848
632	1	28.676151	8.713076	6.973076
633	1	21.204797	21.104542	28.516012
634	1	17.763702	10.357680	8.439798
635	1	12.193088	15.178357	20.792592
636	1	20.478180	15.136833	25.449855
637	1	14.968536	9.202687	7.766571
638	1	7.011279	28.349329	9.196238
639	1	18.052408	6.073775	2.596525
640	1	24.579344	16.976566	8.608625
641	1	6.421007	0.529671	30.559255
642	1	10.524826	8.191264	13.020395
643	1	8.767942	31.519458	7.220477
644	1	8.112031	11.737303	20.539491
645	1	14.260263	11.648081	26.349417
646	1	22.524623	21.695208	23.322076
647	1	14.254713	22.551625	11.860161
648	1	2.097589	18.381707	26.593495
649	1	5.717247	16.490155	28.320822
650	1	27.063562	6.024574	0.544994
651	1	23.732057	8.656983	4.341675
652	1	4.428953	16.295504	17.316989
653	1	21.964992	29.255011	17.826808
654	1	22.332086	19.338104	27.116789
655	1	16.391732	21.347988	24.599095
656	1	4.590979	23.778590	1.375318
657	1	25.997780	17.297585	14.147701
658	1	16.634415	14.146184	14.099977
659	1	1.615325	11.811803	16.392592
660	1	26.646252	4.412567	5.592535
661	1	31.044342	14.311252	22.722679
662	1	3.553596	30.577023	6.133689
663	1	16.226270	16.681338	26.782398
664	1	18.124002	26.463893	5.976222
665	1	1.604410	20.348930	1.094849
666	1	3.854459	13.424744	23.144264
667	1	1.736073	1.588164	5.891838
668	1	9.669066	30.395821	22.519612
669	1	11.404284	22.378588	19.314164
670	1	9.843507	13.311936	14.002263
671	1	17.138763	29.753834	29.533042
672	1	29.345324	12.410745	16.055691
673	1	26.825885	0.749779	9.347183
674	1	27.773598	5.797644	20.349207
675	1	21.786853	23.675007	32.102469
676	1	14.028447	28.394764	12.654228
677	1	5.362048	30.963137	28.819511
678	1	15.011415	18.822983	30.870286
679	1	26.662554	7.592345	18.324132
680	1	14.643617	17.634046	25.055983
681	1	8.858899	8.344951	19.205075
682	1	2.878488	29.078883	4.153900
683	1	30.440767	5.078687	26.730400
684	1	3.529923	17.052448	15.051787
685	1	17.296979	29.797634	22.331555
686	1	8.776160	0.325803	12.517823
687	1	31.961888	1.042114	18.492126
688	1	21.302601	23.244215	2.870316
689	1	18.521591	12.572319	12.570526
690	1	13.236216	0.766657	14.575007
691	1	30.709799	6.428029	10.578209
692	1	24.180207	22.072780	12.109667
693	1	31.490727	13.489928	17.211277
694	1	15.321944	31.831742	26.240523
695	1	10.798871	22.779252	16.784938
696	1	5.776996	30.659798	15.535422
697	1	0.373469	17.704039	12.779135
698	1	22.858275	30.101201	23.307958
699	1	9.226320	29.719119	8.844463
700	1	6.562595	20.150124	23.666825
701	1	27.587622	30.698324	11.646744
702	1	12.385497	17.120265	4.059079
703	1	21.445602	4.181154	6.983154
704	1	30.032242	17.711604	23.599414
705	1	16.761664	10.945627	11.233284
706	1	22.757012	30.988916	14.019934
707	1	25.260179	27.084477	27.036182
708	1	3.294189	29.602979	29.292605
709	1	1.210266	19.299694	21.352202
710	1	5.854784	14.289238	26.782853
711	1	3.887643	24.346715	28.147985
712	1	20.010078	30.944677	14.392893
713	1	3.873126	2.467918	8.231557
714	1	0.489160	21.697909	24.306033
715	1	1.670339	23.125580	9.748225
716	1	5.279263	28.186831	29.707438
717	1	23.700659	25.505293	19.797304
718	1	5.533925	6.099248	10.191592
719	1	21.722699	20.702751	3.759643
720	1	6.771248	21.090018	5.040069
721	1	18.275319	24.440043	27.828799
722	1	9.931007	15.362417	7.184030
723	1	4.951147	16.679188	5.912718
724	1	18.469508	21.353713	17.211690
725	1	2.548689	7.932649	14.605468
726	1	21.258038	24.336849	15.830162
727	1	7.733049	31.038196	0.486336
728	1	14.268578	29.486891	26.567698
729	1	31.159156	30.538462	19.107798
730	1	30.201647	9.032007	13.813018
731	1	28.863459	18.101890	21.269296
732	1	1.504780	15.474051	15.949454
733	1	24.733450	2.877761	22.574038
734	1	6.701170	27.841498	11.859422
735	1	22.260451	10.360401	17.239704
736	1	26.604131	1.150116	11.940424
737	1	26.779808	8.299346	10.698599
738	1	11.948204	22.129223	8.329187
739	1	26.001876	10.651470	10.397616
740	1	16.946178	2.735538	4.713806
741	1	11.767966	16.341421	32.024317
742	1	25.051797	5.282012	23.018217
743	1	31.417190	29.067141	26.696461
744	1	4.904931	5.744566	21.536986
745	1	7.449439	15.983680	6.592457
746	1	19.933874	17.102500	15.738359
747	1	27.917373	13.916883	19.727368
748	1	15.532122	20.855000	6.616849
749	1	8.517189	22.693429	6.006943
750	1	10.110308	11.809135	22.429582
751	1	12.053436	29.528591	31.527763
752	1	16.434638	7.532603	3.966710
753	1	27.211264	26.239407	1.612923
754	1	11.040797	4.196055	17.260679
755	1	28.889679	0.461078	8.252546
756	1	21.726170	27.892039	10.751437
757	1	0.493746	3.807247	5.379090
758	1	18.727037	12.697015	27.155308
759	1	6.021374	22.857639	31.481592
760	1	12.172079	24.810998	24.506042
761	1	2.642481	20.622562	23.196999
762	1	3.670161	18.115957	1.500088
763	1	28.414300	26.369834	14.959928
764	1	10.111100	27.322423	13.715602
765	1	30.197894	11.456282	13.852237
766	1	27.196728	13.830847	2.177095
767	1	11.676596	29.291722	20.946635
768	1	12.588665	30.813683	16.120092
769	1	15.404740	21.286393	31.278174
770	1	10.958089	4.742519	24.274823
771	1	14.716479	26.521226	31.142067
772	1	28.379541	7.700005	1.549038
773	1	31.239274	0.292567	8.855581
774	1	6.617167	22.057744	7.943875
775	1	31.432040	22.121702	5.814712
776	1	29.846142	2.863055	2.237735
777	1	25.172823	12.109365	29.276506
778	1	8.472483	23.541071	14.271938
779	1	17.677793	29.565545	14.144622
780	1	12.611769	25.214491	31.945138
781	1	21.263657	14.776163	15.638572
782	1	19.072996	-0.384825	23.547161
783	1	1.251986	3.381927	17.657162
784	1	17.641242	3.736928	2.635286
785	1	15.756519	4.494554	15.260312
786	1	10.083265	27.882865	22.426634
787	1	10.968176	26.934205	24.763682
788	1	26.316316	27.085553	9.951714
789	1	12.990728	13.075259	15.820811
790	1	17.123282	17.251497	31.309877
791	1	17.243459	8.644892	17.630469
792	1	26.530813	11.554498	1.504596
793	1	5.627564	25.009574	3.725153
794	1	23.112462	27.974857	3.920459
795	1	21.523433	28.050898	24.714693
796	1	24.400956	26.640077	2.015510
797	1	23.675510	8.625149	1.661774
798	1	14.406873	32.026109	12.308343
799	1	1.647764	18.061821	8.670545
800	1	12.910290	21.682844	17.346393
801	1	27.396294	15.772558	26.874263
802	1	23.533096	21.337925	8.883409
803	1	23.724965	31.883037	5.755927
804	1	19.974202	17.256580	4.229730
805	1	9.036717	18.313991	25.343428
806	1	31.820258	27.696531	1.235962
807	1	0.324848	5.242999	21.458416
808	1	2.879714	12.018743	13.365891
809	1	28.432226	14.359868	4.385862
810	1	15.329896	24.971689	5.518012
811	1	1.293208	8.175308	7.410989
812	1	26.418916	1.152428	23.169248
813	1	27.931617	30.897812	23.962188
814	1	13.167980	4.230097	8.191577
815	1	20.425795	16.368037	21.452009
816	1	30.143116	22.164123	11.968465
817	1	14.135618	7.483720	25.010379
818	1	8.619688	3.349244	9.296531
819	1	10.204523	13.572442	20.610707
820	1	6.484064	9.594073	19.839833
821	1	9.970421	20.244803	13.311391
822	1	16.304807	11.683318	13.604369
823	1	27.415430	16.680583	5.177994
824	1	28.865620	18.379934	6.236419
825	1	21.858346	31.363880	16.346943
826	1	10.492133	25.412835	22.329160
827	1	24.929341	15.501873	23.906753
828	1	31.909713	23.564718	26.119179
829	1	13.054004	11.160394	3.686448