ITEM: TIMESTEP
0
ITEM: NUMBER OF ATOMS
2000
ITEM: BOX BOUNDS pp pp pp
0.299875	32.130125
0.299875	32.130125
0.299875	32.130125
ITEM: ATOMS id type x y z
1	1	8.073717	21.771364	22.158919
2	1	25.708782	0.664396	28.739048
3	1	19.929104	11.649811	8.392960
4	1	16.145493	26.447034	11.919024
5	1	23.426441	19.819138	24.677070
6	1	3.813433	19.136275	21.336577
7	1	22.816597	23.684528	25.423411
8	1	9.602849	18.582125	18.013093
9	1	15.060253	17.003679	17.026860
10	1	21.791040	3.695099	31.139013
11	1	19.490439	18.764764	8.038533
12	1	6.580371	4.751685	31.822935
13	1	22.357597	11.945052	24.178270
14	1	4.067312	6.547844	5.489574
15	1	3.427926	30.680951	25.080080
16	1	26.008253	19.603238	24.081836
17	1	7.368419	26.499907	30.376704
18	1	15.535486	29.577120	6.343454
19	1	27.911588	18.328286	12.932771
20	1	2.980035	24.693888	8.581026
21	1	31.709437	15.293765	12.537235
22	1	23.549785	28.631863	13.436928
23	1	8.847494	29.346960	17.431263
24	1	20.571701	31.532895	18.508928
25	1	16.629529	29.349893	16.591254
26	1	23.218675	17.290991	28.147861
27	1	30.330007	28.669068	5.163251
28	1	24.322556	26.312893	14.225498
29	1	9.086368	29.010213	20.137865
30	1	17.977292	26.909546	16.298895
31	1	27.909821	3.000869	12.649103
32	1	25.704168	1.326212	31.269014
33	1	21.309827	3.783769	19.317925
34	1	26.183060	20.544466	3.529537
35	1	24.788487	13.030113	24.482684
36	1	5.869722	0.641871	1.560358
37	1	22.019423	18.871774	22.976025
38	1	18.124823	31.816169	1.109228
39	1	25.526339	17.534414	25.544672
40	1	23.653278	18.374323	17.702369
41	1	28.897276	0.583697	21.992013
42	1	17.273892	18.720676	6.749721
43	1	8.433405	26.566438	23.748830
44	1	24.257075	21.452817	14.887039
45	1	22.762801	16.152374	22.769268
46	1	16.252191	27.421196	4.865494
47	1	21.507982	19.223313	18.785502
48	1	16.961438	15.013305	16.486223
49	1	21.543234	9.551855	0.714693
50	1	25.095986	10.275068	2.887355
51	1	10.981867	28.205464	3.641655
52	1	1.378423	7.398483	19.429285
53	1	5.523908	8.376831	26.110058
54	1	5.934365	3.717863	9.686517
55	1	12.389816	16.373702	25.379265
56	1	26.270290	1.737667	20.676778
57	1	15.113595	14.352488	9.021847
58	1	18.774237	15.204761	23.597412
59	1	11.131072	22.350162	25.657391
60	1	21.071390	18.401316	2.205203
61	1	11.587538	17.608282	6.563732
62	1	9.157058	9.059656	15.069423
63	1	13.789542	28.233002	24.507105
64	1	5.139667	4.470419	19.384485
65	1	8.679647	13.287715	2.317847
66	1	24.592448	25.636023	8.754925
67	1	25.087074	6.504008	5.066035
68	1	30.055227	25.698208	8.411787
69	1	25.455540	31.152263	10.853554
70	1	19.058971	3.546800	11.350077
71	1	22.199162	25.473127	21.633569
72	1	4.608937	14.099889	1.195523
73	1	22.221914	2.373288	22.518075
74	1	2.307254	21.552280	14.372070
75	1	30.556048	2.871091	22.177182
76	1	24.008606	18.525553	6.744211
77	1	23.441110	8.458463	31.029611
78	1	23.075803	22.728503	16.948682
79	1	12.117078	24.428098	20.585636
80	1	1.013411	28.603648	15.415089
81	1	7.277888	19.567967	18.377357
82	1	0.800113	20.125233	30.331198
83	1	24.146980	11.274093	19.013665
84	1	10.549853	30.242112	10.974601
85	1	28.887002	30.628223	19.757324
86	1	13.035340	13.497500	2.987180
87	1	30.665086	6.965957	2.705800
88	1	23.373593	4.194787	1.720619
89	1	15.828918	17.659546	29.043400
90	1	14.424163	2.348902	4.652540
91	1	2.797971	3.248899	30.149280
92	1	0.809410	28.829957	20.054562
93	1	14.753674	15.682073	21.052057
94	1	7.921283	30.045816	11.016056
95	1	19.311265	14.645735	11.515401
96	1	1.278264	19.114135	11.084473
97	1	6.044918	18.606732	30.005285
98	1	10.065813	5.441413	9.989733
99	1	6.364899	30.070304	2.285461
100	1	19.482147	17.743684	13.055646
101	1	19.192181	11.823174	31.912765
102	1	21.310371	16.864476	31.957078
103	1	7.948105	18.974835	3.637245
104	1	7.079037	16.416520	26.141494
105	1	6.933053	25.069770	25.114024
106	1	20.019147	18.882491	21.428370
107	1	25.517228	4.126237	20.516232
108	1	22.553032	20.868574	13.180227
109	1	5.530702	23.472954	26.418032
110	1	4.850398	20.801205	12.010807
111	1	16.329038	3.394298	28.144072
112	1	13.504491	4.061751	24.793852
113	1	20.298930	1.579430	0.440040
114	1	19.994594	5.460808	30.407293
115	1	7.153291	11.851323	29.950121
116	1	10.612131	17.254458	23.638186
117	1	6.573271	7.809379	8.866586
118	1	20.830695	17.179960	27.165949
119	1	5.254007	29.329132	7.691138
120	1	30.291785	20.244248	7.211308
121	1	20.205960	8.699390	13.034904
122	1	23.315857	30.344795	3.509484
123	1	1.212056	15.607944	8.379578
124	1	2.963751	29.459414	8.409642
125	1	8.305253	16.209938	23.835633
126	1	1.021581	4.759241	31.486034
127	1	9.629889	4.545890	22.395644
128	1	0.634052	8.693296	3.176021
129	1	3.267431	0.430925	29.983845
130	1	23.570473	4.585033	18.792621
131	1	28.758696	5.324406	6.611855
132	1	19.529495	29.515323	19.571504
133	1	31.934284	4.599984	9.436113
134	1	3.651262	11.223947	10.819781
135	1	17.347143	5.166274	26.332762
136	1	2.162206	3.549772	15.315286
137	1	6.931919	15.771736	12.002791
138	1	12.070734	9.864720	31.655847
139	1	13.951384	0.721454	22.240356
140	1	26.798134	12.606617	9.401274
141	1	16.605729	4.641726	0.497830
142	1	31.997831	7.742940	15.164677
143	1	1.904413	26.549111	16.684896
144	1	27.443488	9.679891	2.957749
145	1	9.405951	24.115654	2.607454
146	1	6.684646	27.408871	2.844126
147	1	13.799286	18.283290	20.755042
148	1	6.216392	13.858856	9.938278
149	1	16.246582	6.117909	13.327186
150	1	16.745707	29.734615	27.102377
151	1	27.951586	7.582100	13.616531
152	1	7.468443	8.896795	13.252451
153	1	21.123379	11.057938	30.562659
154	1	29.045244	29.708310	21.995672
155	1	24.640020	15.563324	12.844343
156	1	6.522431	21.436915	16.643752
157	1	8.828561	26.179329	26.235239
158	1	21.110604	5.746685	3.027341
159	1	28.282469	12.855377	32.057268
160	1	27.888484	16.237259	2.723508
161	1	31.796693	18.738210	16.829623
162	1	31.453708	1.497112	4.398164
163	1	28.045780	21.162592	12.410359
164	1	10.335663	29.568600	15.332591
165	1	3.658180	23.231567	30.724264
166	1	4.331555	28.694730	2.094689
167	1	22.088926	9.892996	11.666167
168	1	19.171535	4.599802	18.000089
169	1	11.971249	17.901544	17.447075
170	1	6.369412	26.077443	16.523416
171	1	27.982025	29.757934	31.253021
172	1	14.343902	11.550355	11.865487
173	1	8.421940	15.247582	14.040209
174	1	3.124011	24.855302	3.199127
175	1	8.994148	5.891887	25.343773
176	1	27.062410	24.268993	23.088365
177	1	14.414344	15.360079	28.648185
178	1	21.940574	15.792888	29.746064
179	1	25.404605	11.307442	14.495359
180	1	21.814748	24.665245	4.972079
181	1	25.847251	7.692463	2.969525
182	1	16.315764	10.959421	6.431294
183	1	29.662210	25.229378	1.372806
184	1	23.112945	10.656658	29.097963
185	1	20.364494	26.607603	22.776256
186	1	4.257593	12.922199	3.346100
187	1	4.288924	16.451961	26.242610
188	1	5.851631	12.871169	24.577376
189	1	2.368181	27.264012	2.356314
190	1	9.314506	6.048494	27.857173
191	1	12.983088	7.606275	6.263086
192	1	26.855034	16.578453	20.135034
193	1	9.873029	10.264354	7.687652
194	1	17.528296	7.165582	16.347796
195	1	17.090413	14.555946	5.461954
196	1	31.248958	10.848316	4.193587
197	1	14.928649	30.847764	28.754941
198	1	26.716479	2.843580	29.500645
199	1	19.286671	9.163887	18.752314
200	1	24.460082	17.960821	23.055235
201	1	12.211330	15.606926	27.707501
202	1	16.323981	25.260321	29.473506
203	1	26.644350	31.938749	16.444886
204	1	17.986676	29.581987	9.688911
205	1	9.201820	0.306819	30.507993
206	1	16.338132	1.691741	8.698052
207	1	30.714993	0.606581	28.755148
208	1	17.580543	15.339911	9.496190
209	1	5.847369	11.928406	16.193150
210	1	21.487807	12.002122	15.531644
211	1	28.719718	25.931616	10.695627
212	1	23.755863	15.587306	3.759046
213	1	9.077993	17.685729	7.625008
214	1	14.122175	23.786591	3.521174
215	1	1.873435	26.779123	19.311296
216	1	10.574130	25.168387	17.687484
217	1	16.687383	22.268984	11.054093
218	1	17.805519	3.416456	9.319120
219	1	17.698686	11.046674	17.573075
220	1	6.527837	18.242117	25.049184
221	1	19.801108	21.919558	21.064670
222	1	17.063873	27.487371	30.735563
223	1	29.396679	8.214932	11.503790
224	1	29.539611	21.370630	3.056909
225	1	25.140971	25.926176	29.479569
226	1	7.179122	26.105692	9.564081
227	1	17.436711	31.661891	15.402996
228	1	7.006190	20.620782	31.587785
229	1	15.049039	3.045653	17.678415
230	1	1.653427	13.741752	12.218945
231	1	8.202923	30.561793	4.814492
232	1	31.893168	12.721510	2.465722
233	1	2.928085	0.606030	0.986043
234	1	6.521176	1.352765	16.232240
235	1	15.206663	3.048104	23.045158
236	1	13.386095	17.752457	8.204940
237	1	17.947860	31.546269	17.979945
238	1	2.915103	15.680528	24.010365
239	1	6.172928	7.706955	6.523224
240	1	1.472422	22.624344	18.657062
241	1	19.155885	21.923097	10.710886
242	1	18.777824	21.764866	27.849480
243	1	14.107835	9.327267	10.379095
244	1	2.441682	11.566283	22.289565
245	1	31.201065	1.300723	12.960411
246	1	7.946095	24.486123	7.624702
247	1	14.654569	15.095788	15.408598
248	1	10.521511	13.267630	11.657769
249	1	25.810237	23.597899	29.442513
250	1	24.901548	16.096204	21.434533
251	1	12.802430	10.824238	17.290588
252	1	14.846989	15.787120	12.908780
253	1	21.466812	9.684948	4.913766
254	1	10.706922	9.090343	17.350659
255	1	2.648671	5.087747	22.708028
256	1	12.877215	25.284210	5.473648
257	1	14.022923	25.660185	15.465581
258	1	21.006479	25.952846	31.202384
259	1	4.451316	27.990240	15.764014
260	1	6.127983	29.858603	24.520685
261	1	9.690175	29.689782	31.524980
262	1	10.457910	13.811860	28.142082
263	1	21.771297	21.269991	10.720394
264	1	9.974115	8.165984	3.028565
265	1	5.531517	24.588841	8.244192
266	1	2.035387	16.263557	30.557806
267	1	2.222593	22.865931	2.100628
268	1	29.811562	5.558790	22.374000
269	1	5.139479	12.009092	28.219048
270	1	5.630034	14.352546	17.271704
271	1	12.586629	20.450478	20.745762
272	1	16.782354	9.881725	15.340658
273	1	11.813942	5.224354	28.520357
274	1	9.777545	20.272924	26.923754
275	1	4.206668	0.956494	15.331809
276	1	25.994940	4.593106	13.740924
277	1	24.925520	25.268849	24.791074
278	1	2.388222	17.599405	17.198353
279	1	27.349147	29.797930	15.781769
280	1	7.757009	10.225333	11.146037
281	1	8.674323	12.038093	32.068525
282	1	26.587942	18.981607	21.558781
283	1	27.321367	14.968116	9.958938
284	1	18.339078	25.360860	23.304273
285	1	19.660693	7.047970	17.143315
286	1	2.312061	3.090249	1.137937
287	1	30.940415	1.825367	6.855007
288	1	29.494545	14.868043	11.177633
289	1	29.644505	2.632915	14.598838
290	1	6.999495	1.924182	22.503138
291	1	5.875773	2.525908	5.543315
292	1	6.242725	31.454487	6.442334
293	1	1.714107	2.541155	3.626348
294	1	29.840079	9.223321	2.824161
295	1	9.938448	12.737547	24.952596
296	1	23.230690	14.377215	31.860270
297	1	17.427688	14.432452	25.914643
298	1	18.896609	8.707469	26.965144
299	1	18.541313	7.622752	9.175960
300	1	13.318546	27.409995	1.126063
301	1	6.139808	2.103223	25.753510
302	1	4.925557	4.206727	26.494763
303	1	8.115529	15.298907	27.980913
304	1	8.011155	6.202783	6.087308
305	1	2.645578	15.990995	1.127520
306	1	4.030916	25.185507	15.796464
307	1	1.168269	23.945394	4.621153
308	1	10.874448	18.628943	31.542009
309	1	1.234168	11.899943	0.353959
310	1	3.030063	25.372671	23.472325
311	1	27.597947	11.302617	7.107343
312	1	2.273606	15.711893	13.530114
313	1	10.681943	30.784159	3.786000
314	1	17.557770	29.594310	31.928479
315	1	21.836328	11.405728	6.600924
316	1	13.660394	11.177371	6.599512
317	1	4.366090	31.395888	12.977190
318	1	14.647208	11.921805	18.848210
319	1	13.101695	19.201757	10.155295
320	1	23.177178	31.870838	18.613087
321	1	26.945448	21.567535	22.550784
322	1	29.230747	16.577420	19.339548
323	1	29.007809	4.513119	24.549534
324	1	12.890860	29.322322	28.684028
325	1	12.044543	1.645747	20.210040
326	1	1.313225	6.807164	9.712150
327	1	12.123044	8.964902	24.831857
328	1	28.563208	27.739135	8.599797
329	1	19.294980	14.909487	4.176596
330	1	29.149908	8.639553	17.954353
331	1	7.184206	23.122420	3.451018
332	1	4.662948	10.319878	3.162609
333	1	10.908060	17.856939	27.186047
334	1	1.847444	30.174488	21.770570
335	1	7.543784	28.692245	22.686340
336	1	29.021249	15.562822	6.508008
337	1	12.366422	2.653146	29.685023
338	1	20.643045	11.302951	22.297083
339	1	7.675255	29.234419	6.861275
340	1	25.894399	24.551861	10.765044
341	1	10.933888	14.103556	9.335692
342	1	24.380174	1.359706	10.084924
343	1	29.439356	0.608310	2.988312
344	1	17.492368	17.915474	9.344940
345	1	11.448331	20.571846	1.630244
346	1	7.436551	16.486463	30.211101
347	1	27.440962	20.105540	27.729752
348	1	28.338555	16.617138	14.961062
349	1	7.024007	2.872324	29.896245
350	1	16.884461	31.703849	12.744439
351	1	22.629627	7.887468	21.525790
352	1	1.863061	30.751488	31.312773
353	1	8.163732	16.059188	2.516700
354	1	22.495637	10.308039	26.442268
355	1	17.882066	2.295661	0.486541
356	1	20.916865	13.434795	13.491636
357	1	17.730901	8.630750	2.061552
358	1	21.629716	12.315739	1.272738
359	1	15.989369	29.773539	24.633347
360	1	2.845648	3.989512	27.657524
361	1	10.671877	26.543341	5.370465
362	1	25.431877	2.566723	27.194980
363	1	24.631893	9.858529	12.316628
364	1	17.346092	25.688841	25.589599
365	1	27.795334	25.246502	3.893332
366	1	28.777408	10.197504	4.991518
367	1	28.397821	19.612493	23.267360
368	1	27.596419	20.565337	1.290387
369	1	2.508355	2.001232	19.470640
370	1	27.650061	3.419920	19.087286
371	1	25.172084	24.428463	27.008349
372	1	6.467614	9.514078	15.543513
373	1	29.205418	0.637534	5.531328
374	1	25.655649	24.654660	0.408418
375	1	19.297242	16.340153	30.584399
376	1	27.969493	1.527073	27.583410
377	1	5.721793	18.741881	13.771566
378	1	7.305629	2.404699	11.376081
379	1	3.117895	0.441889	21.385083
380	1	11.798949	4.905727	30.956708
381	1	16.840376	27.200330	9.728499
382	1	5.685025	15.194998	7.881099
383	1	3.361729	28.774549	19.990387
384	1	20.596664	6.529311	22.183964
385	1	30.632875	24.241247	21.017026
386	1	25.617520	28.792592	11.738331
387	1	15.191487	5.196703	19.362637
388	1	22.585524	25.931873	24.060941
389	1	6.794428	30.361082	13.057199
390	1	29.335215	4.860044	9.054574
391	1	18.075705	23.184943	8.736194
392	1	21.278119	8.048124	26.169367
393	1	14.029014	25.672640	19.876372
394	1	26.215854	25.305775	15.187827
395	1	16.722308	1.284504	19.088828
396	1	21.087774	5.079878	11.614586
397	1	4.182223	27.340995	11.879383
398	1	6.465563	3.918169	16.004188
399	1	20.728941	4.610794	25.695034
400	1	21.079820	29.271705	12.764018
401	1	23.045133	11.739747	13.035852
402	1	29.852452	29.873243	12.386261
403	1	18.272761	12.562532	10.052067
404	1	13.708589	3.027713	15.561940
405	1	21.713808	28.412913	7.699536
406	1	16.037578	16.435087	1.773607
407	1	3.609827	13.859901	25.645511
408	1	17.373183	3.914021	13.137207
409	1	26.854422	11.150100	30.817323
410	1	9.414527	4.683605	32.009736
411	1	8.299475	17.592958	19.908917
412	1	4.516176	16.808611	12.603569
413	1	16.446129	2.789526	30.457966
414	1	10.621484	23.924015	4.863473
415	1	0.655918	15.439095	2.754737
416	1	20.961329	25.699368	11.121643
417	1	24.084876	11.892642	16.505302
418	1	7.852457	19.789949	8.644732
419	1	15.334519	7.510230	18.359265
420	1	22.821220	14.408909	24.815673
421	1	14.670091	25.129975	1.505882
422	1	9.695656	31.150047	26.709860
423	1	24.651596	14.486703	17.120583
424	1	31.356380	7.399571	17.470201
425	1	28.118178	28.371311	11.052854
426	1	23.908529	30.523255	25.689762
427	1	27.673651	12.227530	14.172556
428	1	22.970904	28.541641	26.794429
429	1	18.661496	13.123428	29.715584
430	1	30.546644	16.657650	1.633855
431	1	30.722742	19.474974	4.871200
432	1	31.790599	21.970527	8.313116
433	1	23.718488	31.909852	30.063351
434	1	21.696838	15.005011	10.352162
435	1	5.032677	13.027703	30.835654
436	1	29.379739	24.773047	24.436115
437	1	30.524940	12.384606	0.329185
438	1	15.248025	19.106220	8.502371
439	1	25.331279	9.374645	19.879792
440	1	11.632767	5.717468	21.285327
441	1	30.336413	9.649278	29.593855
442	1	24.955303	16.399090	6.047182
443	1	4.463084	25.899968	25.774621
444	1	31.078400	17.962096	26.306564
445	1	31.649022	19.599997	9.098419
446	1	13.622138	24.558729	7.877171
447	1	22.230101	19.346226	31.995848
448	1	19.681628	1.950115	22.304096
449	1	25.425022	23.209311	16.090230
450	1	5.135457	4.374908	12.042967
451	1	2.472148	19.620266	15.907703
452	1	23.528630	20.724198	19.186062
453	1	23.982235	19.698440	11.049580
454	1	12.351044	14.807634	30.084112
455	1	30.435178	2.591139	9.159868
456	1	12.742593	4.181716	19.433358
457	1	13.832739	8.321627	0.676403
458	1	8.362134	6.467720	3.431938
459	1	11.159296	17.908300	13.606567
460	1	32.058090	21.401950	10.803163
461	1	15.917681	31.746911	20.855153
462	1	11.845526	22.537761	3.413822
463	1	2.843721	24.625665	18.128054
464	1	29.523557	20.304617	16.938296
465	1	26.054477	27.267272	7.301514
466	1	12.770046	17.656783	30.071040
467	1	4.558270	29.746227	17.804714
468	1	2.726137	4.855671	25.175414
469	1	19.623713	19.425504	27.377074
470	1	15.362848	4.107447	9.553866
471	1	28.709590	7.427880	9.206086
472	1	27.113788	10.081138	18.277867
473	1	2.414745	5.756079	29.490101
474	1	27.451800	22.474091	7.842197
475	1	17.708157	11.064130	22.410956
476	1	29.532912	30.256090	9.815522
477	1	3.439442	12.081848	5.535343
478	1	20.532567	25.934018	28.548096
479	1	9.131823	21.280118	17.893256
480	1	17.383849	25.737258	19.247430
481	1	14.758804	10.578693	22.159349
482	1	13.160502	3.587390	2.891590
483	1	29.838208	16.789946	12.863307
484	1	24.340361	7.618399	7.208020
485	1	31.986442	28.417500	12.918947
486	1	16.821211	19.926026	18.482233
487	1	6.977404	21.438637	10.598171
488	1	4.975200	23.933700	24.013290
489	1	30.973866	23.163477	1.767747
490	1	28.488185	17.126080	10.718244
491	1	10.741355	12.587548	4.118912
492	1	2.583618	19.953079	28.401891
493	1	4.105275	26.530609	20.786460
494	1	23.343511	8.429921	19.093752
495	1	6.910542	30.839232	8.847894
496	1	5.224284	10.543922	30.828109
497	1	9.650578	2.358403	2.738834
498	1	12.494817	9.827301	12.410333
499	1	10.792447	22.252950	14.368799
500	1	12.001956	23.123730	12.663236
501	1	20.970612	31.874688	12.242772
502	1	4.186349	3.224618	21.514775
503	1	17.423114	16.496949	11.905306
504	1	11.344889	15.001935	5.104577
505	1	29.545551	15.887893	8.739531
506	1	0.325851	13.054300	7.764794
507	1	10.318401	27.357110	16.338347
508	1	2.058657	25.144748	29.960168
509	1	5.777960	18.097373	22.531552
510	1	20.104003	11.545576	17.616733
511	1	4.212458	23.138062	19.561683
512	1	19.543969	6.225811	6.687345
513	1	14.533308	6.673129	11.480893
514	1	16.509362	5.245996	17.355901
515	1	23.570865	19.747708	2.461676
516	1	12.150344	12.195530	13.347663
517	1	26.750181	22.312841	31.450545
518	1	5.448944	31.734436	26.289990
519	1	30.480142	8.407917	32.102287
520	1	20.809307	4.209636	23.363171
521	1	7.077222	20.531710	26.222112
522	1	27.782878	21.812837	18.275001
523	1	3.351291	9.298583	22.956411
524	1	15.383405	6.598218	31.129478
525	1	3.850808	9.748974	27.678827
526	1	23.223842	9.466203	6.839993
527	1	31.593507	26.511008	20.809694
528	1	23.925047	2.557596	29.517236
529	1	17.185991	3.674968	19.215829
530	1	28.774046	5.161776	2.638069
531	1	28.890707	28.064590	27.036966
532	1	2.324711	13.590014	1.871748
533	1	26.291252	9.164489	8.311312
534	1	3.203047	31.530426	27.438157
535	1	6.074795	23.409615	15.090510
536	1	26.948514	28.533863	23.059368
537	1	19.857032	7.560919	1.451857
538	1	23.516116	27.770446	16.064510
539	1	17.277435	10.029104	4.156449
540	1	31.831942	8.738958	25.667331
541	1	3.662354	28.129608	24.661767
542	1	29.480498	7.404653	15.642297
543	1	15.080901	20.344813	28.751205
544	1	24.193015	22.934630	31.238062
545	1	27.449144	19.370453	10.502651
546	1	2.742783	21.146210	-1.138553
547	1	2.639175	22.949925	22.981200
548	1	25.219329	18.647977	19.592885
549	1	21.022855	12.028373	28.249321
550	1	16.337017	24.796257	16.023050
551	1	8.564684	18.717741	30.660145
552	1	26.256923	21.095508	20.062227
553	1	5.641552	13.939109	21.475319
554	1	6.662367	7.956993	17.816741
555	1	6.929925	2.479275	3.141902
556	1	29.740815	19.637636	28.009286
557	1	6.303688	9.011604	23.929285
558	1	2.695153	8.553511	25.710815
559	1	10.024836	31.504079	17.062728
560	1	20.366216	14.443808	19.903610
561	1	25.651591	31.010579	3.988935
562	1	4.940457	30.808133	19.983778
563	1	1.913754	26.577242	4.899176
564	1	27.307571	29.050724	6.289637
565	1	13.439708	15.959561	2.103972
566	1	9.225557	26.588797	2.596991
567	1	31.029405	13.824442	4.404973
568	1	12.221058	30.240963	13.264688
569	1	5.918364	27.940460	32.143499
570	1	24.967995	10.071449	27.259134
571	1	30.940586	21.534371	29.470309
572	1	29.388314	17.637871	17.015271
573	1	22.628803	15.118729	20.414749
574	1	10.658444	0.969616	28.632377
575	1	29.545700	26.397331	17.014941
576	1	22.630679	20.331738	16.652845
577	1	13.071707	20.116413	7.136513
578	1	17.445581	25.455625	8.088437
579	1	27.988248	2.943571	10.128554
580	1	2.845606	31.496489	10.840255
581	1	21.626809	18.718177	11.792982
582	1	15.433905	1.220605	6.504676
583	1	25.172768	23.345928	8.493302
584	1	27.602017	21.070656	25.175810
585	1	1.233868	2.918083	7.976806
586	1	0.839682	5.256414	11.708308
587	1	29.575885	27.237924	12.847280
588	1	6.264257	6.565593	12.641467
589	1	14.156627	2.369938	31.586364
590	1	4.747523	21.000672	14.556302
591	1	31.121905	3.210786	32.100880
592	1	20.061949	10.700134	26.219913
593	1	30.583595	5.754315	4.922466
594	1	21.862979	0.711222	9.947020
595	1	0.964489	3.204750	26.202842
596	1	3.782863	11.668821	0.909880
597	1	3.828393	14.824019	9.202307
598	1	26.236789	25.727418	19.418839
599	1	7.371110	30.164264	26.998209
600	1	23.031237	21.821706	1.446696
601	1	17.974735	6.462769	22.215999
602	1	4.263271	16.187459	21.786216
603	1	19.993278	3.080328	16.080140
604	1	2.485949	8.976387	10.225913
605	1	27.378556	15.627366	12.537167
606	1	14.768840	13.465377	30.616853
607	1	10.242277	4.171228	26.664393
608	1	26.451848	18.980807	5.726837
609	1	9.648064	9.638748	0.898570
610	1	25.576740	8.818872	14.335199
611	1	6.353470	32.013291	10.966527
612	1	23.316001	17.440420	1.718119
613	1	22.371501	12.615171	20.644672
614	1	21.636000	29.056497	15.260416
615	1	13.192711	16.642621	19.074568
616	1	11.954197	31.480508	21.994542
617	1	30.144511	12.974361	24.810380
618	1	23.853977	11.198981	4.948047
619	1	17.796706	22.718210	15.275368
620	1	22.316841	6.445531	8.418579
621	1	4.565931	31.709381	8.683620
622	1	20.333651	4.030495	13.680427
623	1	21.485129	15.388785	5.207257
624	1	5.962054	6.410472	1.981206
625	1	2.580978	17.519702	5.944323
626	1	26.232032	13.499086	27.340719
627	1	8.176500	22.533517	1.071234
628	1	23.722222	25.533266	4.049903
629	1	24.206128	19.967075	4.732206
630	1	31.213393	11.743892	9.621317
631	1	30.907235	16.022354	15.298663
632	1	28.677093	8.712900	6.971216
633	1	21.204643	21.105719	28.516934
634	1	17.759304	10.349776	8.437344
635	1	12.182967	15.189333	20.795701
636	1	20.479323	15.138871	25.452929
637	1	14.975511	9.199238	7.774361
638	1	7.011240	28.348671	9.193655
639	1	18.051837	6.074456	2.593048
640	1	24.579116	16.975219	8.609122
641	1	6.421181	0.530969	30.559596
642	1	10.526750	8.194899	13.021575
643	1	8.768877	31.519585	7.219674
644	1	8.118182	11.735570	20.539072
645	1	14.269746	11.634741	26.365101
646	1	22.524094	21.696146	23.319972
647	1	14.255840	22.551629	11.859203
648	1	2.096281	18.381459	26.594150
649	1	5.716752	16.488839	28.321965
650	1	27.063944	6.024248	0.541802
651	1	23.732179	8.656788	4.341053
652	1	4.427969	16.296145	17.317660
653	1	21.965700	29.253859	17.826442
654	1	22.331636	19.340414	27.117993
655	1	16.390274	21.351204	24.602025
656	1	4.591685	23.778452	1.374116
657	1	25.997151	17.298630	14.148015
658	1	16.633289	14.154947	14.103376
659	1	1.616958	11.811240	16.392503
660	1	26.643568	4.411063	5.595516
661	1	31.048322	14.309612	22.721527
662	1	3.553625	30.576906	6.132022
663	1	16.227102	16.684252	26.784734
664	1	18.123284	26.462640	5.975105
665	1	1.605897	20.347438	1.094729
666	1	3.856500	13.422368	23.146293
667	1	1.736583	1.587242	5.890506
668	1	9.666063	30.395433	22.518803
669	1	11.405331	22.380817	19.314360
670	1	9.842162	13.315624	14.001565
671	1	17.138205	29.754782	29.533817
672	1	29.351800	12.412155	16.054221
673	1	26.828358	0.750021	9.345737
674	1	27.770104	5.795112	20.345699
675	1	21.786608	23.675157	32.102674
676	1	14.029723	28.390940	12.650599
677	1	5.362404	30.965014	28.819546
678	1	15.011458	18.821904	30.873161
679	1	26.660140	7.590487	18.325028
680	1	14.644155	17.634060	25.054892
681	1	8.864047	8.346468	19.205658
682	1	2.878815	29.078393	4.152426
683	1	30.439752	5.078358	26.728089
684	1	3.527175	17.052055	15.052367
685	1	17.296475	29.793194	22.338107
686	1	8.776538	0.325820	12.517228
687	1	31.961165	1.041916	18.490603
688	1	21.301980	23.244028	2.870506
689	1	18.525477	12.558911	12.562268
690	1	13.236074	0.756128	14.567144
691	1	30.714123	6.429002	10.574931
692	1	24.168727	22.071032	12.107027
693	1	31.495428	13.491901	17.210641
694	1	15.321902	31.832806	26.243425
695	1	10.794964	22.779969	16.785457
696	1	5.778413	30.660797	15.534115
697	1	0.372549	17.705278	12.780682
698	1	22.858674	30.101192	23.306458
699	1	9.226643	29.718197	8.842226
700	1	6.557545	20.150642	23.668556
701	1	27.588368	30.699116	11.646214
702	1	12.386421	17.120012	4.057981
703	1	21.446358	4.183006	6.982812
704	1	30.033487	17.712717	23.598118
705	1	16.767323	10.937454	11.240057
706	1	22.756091	30.989017	14.018750
707	1	25.260144	27.084512	27.036264
708	1	3.294632	29.604097	29.292979
709	1	1.211292	19.303159	21.355374
710	1	5.855912	14.288189	26.783336
711	1	3.885442	24.346731	28.148263
712	1	20.012174	30.941183	14.390419
713	1	3.876154	2.467882	8.231292
714	1	0.485664	21.697772	24.300495
715	1	1.668473	23.125723	9.747120
716	1	5.279418	28.187062	29.707027
717	1	23.700616	25.503872	19.795766
718	1	5.539140	6.099004	10.192642
719	1	21.721163	20.701578	3.759498
720	1	6.771080	21.089146	5.039734
721	1	18.275628	24.441011	27.829907
722	1	9.933652	15.361017	7.184369
723	1	4.951690	16.678801	5.913701
724	1	18.465524	21.345965	17.211007
725	1	2.551416	7.933297	14.605207
726	1	21.258836	24.332767	15.830356
727	1	7.733443	31.040245	0.485891
728	1	14.267168	29.486756	26.570105
729	1	31.158215	30.537109	19.105265
730	1	30.204973	9.031798	13.811252
731	1	28.865953	18.104216	21.268397
732	1	1.502091	15.471932	15.951839
733	1	24.731316	2.877458	22.569839
734	1	6.701040	27.841204	11.856327
735	1	22.266181	10.360981	17.236380
736	1	26.603074	1.150082	11.939665
737	1	26.782499	8.300051	10.698205
738	1	11.948467	22.127616	8.327917
739	1	26.003812	10.651846	10.396145
740	1	16.945157	2.736421	4.711496
741	1	11.768297	16.340346	32.025366
742	1	25.043716	5.280242	23.013271
743	1	31.417786	29.067811	26.696691
744	1	4.908240	5.744102	21.536896
745	1	7.451428	15.981349	6.591946
746	1	19.915498	17.096160	15.747405
747	1	27.921965	13.916000	19.726935
748	1	15.533578	20.854482	6.617668
749	1	8.517656	22.692832	6.005083
750	1	10.115654	11.808907	22.430371
751	1	12.052529	29.529528	31.526983
752	1	16.436310	7.531635	3.966179
753	1	27.211039	26.239295	1.612965
754	1	11.026442	4.194687	17.267640
755	1	28.891143	0.461184	8.249774
756	1	21.724885	27.891170	10.747945
757	1	0.495426	3.807375	5.377080
758	1	18.728792	12.700728	27.155614
759	1	6.021638	22.856977	31.480656
760	1	12.169142	24.812800	24.506364
761	1	2.644769	20.622888	23.199737
762	1	3.671093	18.115218	1.498691
763	1	28.415778	26.389724	14.956864
764	1	10.109648	27.321171	13.711807
765	1	30.200860	11.455604	13.851136
766	1	27.197373	13.830347	2.176984
767	1	11.673756	29.287853	20.944070
768	1	12.586638	30.806695	16.115460
769	1	15.405250	21.285598	31.280428
770	1	10.958294	4.741209	24.280683
771	1	14.716911	26.522762	31.143382
772	1	28.378834	7.699637	1.547260
773	1	31.239951	0.293471	8.852661
774	1	6.617142	22.055901	7.940785
775	1	31.432388	22.120364	5.813393
776	1	29.844454	2.863162	2.237020
777	1	25.171671	12.109046	29.277121
778	1	8.470375	23.541901	14.270169
779	1	17.682603	29.562440	14.139783
780	1	12.612617	25.215375	31.943273
781	1	21.258191	14.775863	15.637689
782	1	19.072294	-0.386035	23.549662
783	1	1.252632	3.381521	17.656280
784	1	17.643128	3.738430	2.635179
785	1	15.754223	4.492092	15.229262
786	1	10.079236	27.882543	22.425237
787	1	10.964936	26.934880	24.764043
788	1	26.315979	27.086331	9.950047
789	1	12.992073	13.081441	15.828362
790	1	17.123225	17.251123	31.311527
791	1	17.264411	8.768693	17.614754
792	1	26.530888	11.554084	1.503914
793	1	5.627583	25.008579	3.723524
794	1	23.111961	27.975253	3.920161
795	1	21.523086	28.051294	24.714249
796	1	24.400166	26.640301	2.015046
797	1	23.675887	8.625698	1.660584
798	1	14.406126	32.010798	12.306425
799	1	1.647586	18.062632	8.672126
800	1	12.906820	21.685402	17.338018
801	1	27.397705	15.769826	26.875099
802	1	23.530845	21.337048	8.884490
803	1	23.725259	31.884462	5.755613
804	1	19.973889	17.255915	4.230490
805	1	9.035767	18.314425	25.345526
806	1	31.820576	27.695928	1.234182
807	1	0.324631	5.240982	21.456699
808	1	2.881163	12.019049	13.366029
809	1	28.432851	14.359546	4.386113
810	1	15.331593	24.970959	5.518019
811	1	1.301575	8.174066	7.410418
812	1	26.417718	1.150270	23.164532
813	1	27.931242	30.895725	23.959502
814	1	13.172177	4.229071	8.195959
815	1	20.424215	16.370936	21.460292
816	1	30.138884	22.168455	11.968735
817	1	14.134943	7.478863	25.009353
818	1	8.625192	3.348813	9.297394
819	1	10.199988	13.575373	20.611620
820	1	6.487205	9.593838	19.840936
821	1	9.970169	20.247289	13.308666
822	1	16.309774	11.689683	13.607666
823	1	27.415425	16.680365	5.177979
824	1	28.865278	18.380053	6.236685
825	1	21.856996	31.362790	16.344619
826	1	10.488575	25.412560	22.329219
827	1	24.931317	15.502207	23.905174
828	1	31.907129	23.563344	26.119160
829	1	13.057094	11.156636	3.687472