#ITEM: NUMBER OF ATOMS

2000 atoms
2 atom types

#ITEM: BOX BOUNDS pp pp pp

0.299875 32.130125 xlo xhi
0.299875 32.130125 ylo yhi
0.299875 32.130125 zlo zhi

  Atoms

1	1	8.098213	21.741844	22.161807
2	1	25.692987	0.658289	28.729977
3	1	19.934629	11.642912	8.420397
4	1	16.150829	26.465584	11.898272
5	1	23.442440	19.821870	24.693495
6	1	3.821589	19.091249	21.338557
7	1	22.824817	23.671784	25.422963
8	1	9.638071	18.603358	18.032820
9	1	15.063539	17.003016	17.049812
10	1	21.799512	3.684986	31.130159
11	1	19.489739	18.778919	8.024563
12	1	6.492820	4.808121	31.759778
13	1	22.348042	11.936635	24.182860
14	1	4.214234	6.647533	5.474387
15	1	3.424762	30.657867	25.038157
16	1	26.006876	19.610159	24.089513
17	1	7.420712	26.535982	30.434234
18	1	15.525885	29.630384	6.304348
19	1	27.887396	18.370336	12.934759
20	1	2.993610	24.742530	8.572771
21	1	31.707493	15.319850	12.475099
22	1	23.623872	28.614164	13.473272
23	1	8.861767	29.350049	17.429483
24	1	20.573386	31.523238	18.499896
25	1	16.635419	29.354227	16.579322
26	1	23.248499	17.290570	28.150693
27	1	30.226199	28.614617	5.196694
28	1	24.403444	26.218384	14.202217
29	1	9.086501	29.009932	20.137259
30	1	17.986287	26.917688	16.284250
31	1	27.922896	2.995892	12.645647
32	1	25.697106	1.326037	31.265145
33	1	21.312861	3.756697	19.322216
34	1	26.183710	20.499598	3.473146
35	1	24.780555	13.014232	24.480091
36	1	5.803772	0.628889	1.342587
37	1	22.039958	18.893557	22.991176
38	1	18.105357	31.836863	1.129283
39	1	25.518809	17.536988	25.567216
40	1	23.665413	18.367098	17.715289
41	1	28.887151	0.561896	21.955743
42	1	17.279479	18.734254	6.746156
43	1	8.440420	26.575445	23.763775
44	1	24.214752	21.433178	14.891564
45	1	22.761724	16.140120	22.784352
46	1	16.248051	27.414450	4.848026
47	1	21.513536	19.216822	18.796293
48	1	16.955653	15.007730	16.528365
49	1	21.532755	9.537041	0.722262
50	1	25.079823	10.284442	2.895734
51	1	10.956917	28.163328	3.663415
52	1	1.371798	7.373210	19.410723
53	1	5.503699	8.361772	26.046059
54	1	5.941737	3.746386	9.675409
55	1	12.427346	16.362854	25.355305
56	1	26.265237	1.721688	20.652538
57	1	15.178224	14.449161	9.068580
58	1	18.794036	15.200878	23.608054
59	1	11.135208	22.405212	25.754693
60	1	21.068739	18.376100	2.199598
61	1	11.535583	17.637733	6.589782
62	1	9.136726	9.096287	15.083191
63	1	13.783937	28.226858	24.502955
64	1	5.153378	4.475202	19.361946
65	1	8.694924	13.170598	2.302207
66	1	24.611315	25.647348	8.746616
67	1	25.090239	6.511707	5.066121
68	1	30.082387	25.715294	8.396843
69	1	25.488163	31.136605	10.829341
70	1	19.073839	3.526346	11.347581
71	1	22.190350	25.460675	21.635117
72	1	4.599963	14.041063	1.239010
73	1	22.204404	2.357750	22.510971
74	1	2.292862	21.576118	14.360270
75	1	30.543524	2.828259	22.122957
76	1	24.019298	18.539527	6.738343
77	1	23.419190	8.466163	31.025330
78	1	23.068597	22.717108	16.932847
79	1	12.122944	24.442585	20.585059
80	1	1.037741	28.561752	15.416814
81	1	7.299415	19.546286	18.393462
82	1	0.817583	20.135179	30.287529
83	1	24.145628	11.258578	19.016728
84	1	10.575960	30.273404	10.958229
85	1	28.873427	30.580204	19.724384
86	1	13.042497	13.231801	3.021112
87	1	30.643380	6.937258	2.688531
88	1	23.378879	4.199630	1.719862
89	1	15.818511	17.604625	29.063256
90	1	14.418534	2.259412	4.530892
91	1	2.704479	3.210820	30.059074
92	1	0.798004	28.797188	20.032515
93	1	14.761611	15.676530	21.063205
94	1	7.950210	30.078840	11.008835
95	1	19.330530	14.658203	11.535758
96	1	1.243464	19.187270	11.085478
97	1	6.081028	18.583397	30.036390
98	1	10.094413	5.491905	10.024279
99	1	6.376069	29.772322	1.620482
100	1	19.481374	17.746818	13.069728
101	1	19.182860	11.825343	31.924097
102	1	21.308352	16.839372	31.958923
103	1	7.976364	18.945057	3.670311
104	1	7.085512	16.437781	26.141116
105	1	6.964992	25.060625	25.149717
106	1	20.023899	18.868018	21.451319
107	1	25.518008	4.107033	20.490465
108	1	22.540197	20.852227	13.171382
109	1	5.548755	23.449961	26.428302
110	1	4.824126	20.856536	12.007488
111	1	16.266930	3.368890	28.194591
112	1	13.459819	4.035633	24.849733
113	1	20.319714	1.579253	0.438736
114	1	19.990070	5.441830	30.391900
115	1	7.177562	11.902398	30.040291
116	1	10.630777	17.274920	23.631723
117	1	6.665214	7.643815	8.715391
118	1	20.845875	17.174871	27.193348
119	1	5.263819	29.451433	7.607163
120	1	30.281377	20.291288	7.219698
121	1	20.240580	8.703349	13.060207
122	1	23.339199	30.359190	3.511676
123	1	1.234035	15.679411	8.365919
124	1	3.006817	29.508321	8.438587
125	1	8.312888	16.229448	23.840072
126	1	0.917948	4.723000	31.396773
127	1	9.627081	4.541157	22.387735
128	1	0.582887	8.673587	3.084422
129	1	3.150875	0.424643	29.906203
130	1	23.577528	4.561367	18.782905
131	1	28.764982	5.324144	6.594077
132	1	19.518800	29.515130	19.567724
133	1	31.944202	4.593189	9.404800
134	1	3.669636	11.235566	10.634033
135	1	17.306130	5.150767	26.355918
136	1	2.172207	3.572083	15.293864
137	1	6.945111	15.880053	12.025553
138	1	11.977152	9.812191	31.845319
139	1	13.954171	0.724072	22.267014
140	1	26.774740	12.620219	9.438059
141	1	16.554092	4.638068	0.566265
142	1	32.010691	7.764996	15.139444
143	1	1.865114	26.476128	16.704780
144	1	27.433712	9.684379	2.958808
145	1	9.389963	24.151992	2.597584
146	1	6.674848	27.413515	2.845760
147	1	13.828656	18.308511	20.740084
148	1	6.227844	13.968355	10.023538
149	1	16.285428	6.104134	13.319825
150	1	16.711804	29.725802	27.120960
151	1	27.956498	7.600917	13.603070
152	1	7.468386	8.915034	13.276775
153	1	21.104105	11.048739	30.572254
154	1	29.026263	29.689198	21.970034
155	1	24.637391	15.578576	12.847478
156	1	6.547601	21.432536	16.648976
157	1	8.825056	26.218961	26.271699
158	1	21.136973	5.737377	3.021521
159	1	28.214448	12.851174	32.075128
160	1	27.909298	16.223067	2.759685
161	1	31.708182	18.615955	16.912064
162	1	31.517504	1.482738	4.433718
163	1	28.008944	21.190576	12.441599
164	1	10.356531	29.591548	15.334462
165	1	3.699582	23.183688	30.692510
166	1	4.276413	28.664058	2.011754
167	1	22.103666	9.891962	11.676965
168	1	19.180398	4.582376	18.015424
169	1	12.004097	17.925108	17.479330
170	1	6.368081	26.068133	16.521211
171	1	28.019638	29.788410	31.255771
172	1	14.336818	11.582651	11.871304
173	1	8.426613	15.349759	14.154244
174	1	3.135467	24.887561	3.214253
175	1	8.967902	5.882892	25.352133
176	1	27.085646	24.247293	23.070556
177	1	14.351121	15.300926	28.719159
178	1	21.934543	15.793004	29.737814
179	1	25.421262	11.308428	14.498975
180	1	21.815368	24.674463	4.955433
181	1	25.836097	7.712410	2.977503
182	1	16.350437	11.015172	6.479230
183	1	29.654264	25.216654	1.368302
184	1	23.093084	10.656594	29.099883
185	1	20.356233	26.594549	22.777291
186	1	4.338144	12.735595	3.354061
187	1	4.300257	16.459018	26.252083
188	1	5.885906	12.856144	24.619632
189	1	2.357106	27.288834	2.363518
190	1	9.314954	6.016305	27.865270
191	1	12.878433	7.476578	6.263388
192	1	26.833544	16.572686	20.155869
193	1	10.033037	10.367085	7.955776
194	1	17.611543	7.236600	16.358209
195	1	17.057714	14.543008	5.464202
196	1	31.257442	10.842030	4.168111
197	1	14.869166	30.805575	28.762929
198	1	26.700943	2.840147	29.480937
199	1	19.277373	9.145586	18.773524
200	1	24.458076	17.964194	23.061886
201	1	12.198027	15.568904	27.713885
202	1	16.344068	25.235707	29.467544
203	1	26.671891	31.874453	16.398689
204	1	17.999243	29.596012	9.674382
205	1	9.341847	0.558571	30.677490
206	1	16.342734	1.704688	8.649326
207	1	30.639882	0.583825	28.691065
208	1	17.607504	15.367486	9.517848
209	1	5.808555	11.922149	16.254259
210	1	21.495149	12.000066	15.553045
211	1	28.772405	25.991559	10.674839
212	1	23.749999	15.587039	3.748183
213	1	9.061627	17.699731	7.644690
214	1	14.103923	23.787679	3.496799
215	1	1.861026	26.741131	19.319431
216	1	10.581356	25.187188	17.678344
217	1	16.689767	22.287699	11.038853
218	1	17.828136	3.393795	9.315581
219	1	17.702701	11.036162	17.603555
220	1	6.522129	18.252650	25.059255
221	1	19.803590	21.916487	21.076290
222	1	17.037054	27.472584	30.720630
223	1	29.415377	8.233475	11.495248
224	1	29.577466	21.365415	3.047049
225	1	25.143181	25.955064	29.503543
226	1	7.194992	26.151512	9.569295
227	1	17.443191	31.662468	15.391670
228	1	7.014137	20.580468	31.642674
229	1	15.064658	3.063898	17.684165
230	1	1.649652	13.777870	12.257478
231	1	8.491233	30.726229	4.941975
232	1	31.904067	12.722277	2.522583
233	1	2.859921	0.619629	0.884606
234	1	6.462409	1.331795	16.317259
235	1	15.180928	3.042174	23.066814
236	1	13.358548	17.828967	8.230593
237	1	17.950825	31.544961	17.971585
238	1	2.920422	15.664385	24.030792
239	1	5.940785	8.359542	6.675097
240	1	1.537477	22.589713	18.675932
241	1	19.149979	21.928137	10.691954
242	1	18.791506	21.758634	27.852636
243	1	14.155979	9.359152	10.453248
244	1	2.435132	11.531803	22.325841
245	1	31.221636	1.321959	12.938090
246	1	7.949659	24.520633	7.627003
247	1	14.659119	15.097246	15.437175
248	1	10.614924	13.301253	11.752301
249	1	25.786103	23.616226	29.445419
250	1	24.893568	16.078997	21.457525
251	1	12.796377	10.836675	17.301990
252	1	14.867403	15.811364	12.934841
253	1	21.463925	9.685139	4.926659
254	1	10.710018	9.113408	17.352995
255	1	2.650961	5.042653	22.656778
256	1	12.862361	25.307628	5.443325
257	1	14.037746	25.692180	15.457628
258	1	20.993461	25.956145	31.204877
259	1	4.425077	27.968407	15.769361
260	1	6.138347	29.837767	24.520027
261	1	9.539682	29.792682	31.600265
262	1	10.410130	13.779097	28.014317
263	1	21.762972	21.281905	10.709162
264	1	9.018884	7.425041	2.773827
265	1	5.545093	24.650588	8.236954
266	1	2.063999	16.255765	30.583895
267	1	2.237049	22.880435	2.152524
268	1	29.805196	5.529080	22.333465
269	1	5.133894	12.000986	28.251641
270	1	5.584657	14.367885	17.289250
271	1	12.610886	20.466215	20.755088
272	1	16.802790	9.869301	15.379075
273	1	11.803862	5.214169	28.570050
274	1	9.785675	20.268841	26.936824
275	1	4.200457	0.963622	15.329482
276	1	26.004497	4.570366	13.745673
277	1	24.915103	25.263837	24.791064
278	1	2.375247	17.700208	17.232111
279	1	27.408500	29.675541	15.748601
280	1	7.771965	10.300062	11.242622
281	1	8.696553	11.775217	32.164030
282	1	26.572554	18.973819	21.572023
283	1	27.290707	15.020259	9.971161
284	1	18.332936	25.350137	23.306415
285	1	19.693906	7.031176	17.179926
286	1	2.207740	3.077959	1.063685
287	1	30.848515	1.762938	6.854779
288	1	29.481126	14.905591	11.168953
289	1	29.653951	2.674483	14.583251
290	1	6.993420	1.915563	22.485739
291	1	5.531519	2.403921	5.711527
292	1	6.325458	31.541942	6.323025
293	1	1.744276	2.555290	3.656141
294	1	29.814877	9.216113	2.797948
295	1	9.954440	12.746698	25.001466
296	1	23.205055	14.438813	31.872845
297	1	17.429242	14.430432	25.925022
298	1	18.883951	8.697105	26.974161
299	1	18.552096	7.608233	9.180049
300	1	13.168268	27.303324	0.914163
301	1	6.133487	2.086654	25.727801
302	1	4.916795	4.160274	26.446585
303	1	8.115540	15.286043	27.955576
304	1	7.744314	6.470098	6.337499
305	1	2.639633	15.964750	1.187540
306	1	3.989924	25.165384	15.805317
307	1	1.199716	23.978010	4.626689
308	1	10.883758	18.561675	31.544315
309	1	1.169185	11.933747	0.318146
310	1	3.086427	25.370881	23.481974
311	1	27.576544	11.290809	7.120586
312	1	2.247954	15.807493	13.543724
313	1	10.981500	30.610876	3.817328
314	1	17.538796	29.585351	31.930768
315	1	21.834443	11.404902	6.617295
316	1	13.713075	11.245545	6.882986
317	1	4.429001	31.389440	13.042640
318	1	14.639761	11.917776	18.880766
319	1	13.089476	19.254884	10.161710
320	1	23.183334	31.843327	18.603659
321	1	26.954047	21.572506	22.552479
322	1	29.197360	16.519024	19.349092
323	1	28.983709	4.485395	24.519762
324	1	12.746983	29.219874	28.647680
325	1	12.045877	1.654493	20.206721
326	1	1.303694	6.809773	9.688340
327	1	12.117534	8.944863	24.833802
328	1	28.621849	27.764216	8.547346
329	1	19.270410	14.888800	4.202438
330	1	29.145436	8.631116	17.940435
331	1	7.187311	23.133125	3.461639
332	1	4.864606	10.129806	3.110189
333	1	10.964113	17.903054	27.211429
334	1	1.844743	30.147308	21.742558
335	1	7.545739	28.689774	22.661439
336	1	28.948319	15.589727	6.543966
337	1	12.354122	2.633860	29.818533
338	1	20.640779	11.287620	22.309186
339	1	7.681388	29.295982	6.840917
340	1	25.868212	24.564832	10.738944
341	1	10.973190	14.216543	9.432831
342	1	24.405123	1.344317	10.080427
343	1	29.470160	0.595496	3.006997
344	1	17.510960	17.947895	9.346607
345	1	11.431100	20.513087	1.656273
346	1	7.444176	16.451649	30.222405
347	1	27.446291	20.120412	27.739007
348	1	28.332453	16.646727	14.945905
349	1	6.990164	2.841363	29.861422
350	1	16.902659	31.700135	12.709531
351	1	22.632645	7.870679	21.530596
352	1	1.724045	30.727473	31.244805
353	1	8.188429	15.909800	2.521878
354	1	22.484124	10.304935	26.444878
355	1	17.928524	2.317828	0.486489
356	1	20.929144	13.433161	13.511436
357	1	17.737145	8.641688	2.084970
358	1	21.607447	12.322426	1.286216
359	1	15.978091	29.779982	24.647987
360	1	2.815730	3.950933	27.590241
361	1	10.666486	26.539016	5.394775
362	1	25.411071	2.552707	27.177586
363	1	24.648422	9.855437	12.323862
364	1	17.343033	25.692780	25.579243
365	1	27.822136	25.196886	3.826338
366	1	28.770221	10.197588	4.980603
367	1	28.391016	19.591817	23.292036
368	1	27.633688	20.554415	1.287751
369	1	2.500525	1.958950	19.419726
370	1	27.651904	3.393242	19.048407
371	1	25.185083	24.424601	26.996159
372	1	6.446597	9.524142	15.555028
373	1	29.169113	0.679394	5.473372
374	1	25.628834	24.658311	0.398454
375	1	19.282363	16.333220	30.586957
376	1	27.949414	1.510708	27.551806
377	1	5.711076	18.744078	13.780046
378	1	7.346270	2.435300	11.366019
379	1	3.116589	0.419704	21.341276
380	1	11.766789	4.855576	31.064570
381	1	16.838759	27.218303	9.704967
382	1	5.689238	15.209681	7.918194
383	1	3.351490	28.744695	19.983203
384	1	20.582244	6.514734	22.187723
385	1	30.681833	24.190692	21.095072
386	1	25.672867	28.784883	11.719090
387	1	15.196947	5.197102	19.365752
388	1	22.582950	25.916030	24.061453
389	1	6.842624	30.387840	13.074180
390	1	29.337484	4.869582	9.042962
391	1	18.072346	23.196235	8.723348
392	1	21.260635	8.042740	26.172073
393	1	14.040578	25.685398	19.877264
394	1	26.407239	25.294123	15.162287
395	1	16.715749	1.278503	19.088234
396	1	21.095656	5.063576	11.613776
397	1	4.204635	27.343747	11.901168
398	1	6.489860	3.910369	15.987866
399	1	20.702001	4.587922	25.695099
400	1	21.137742	29.225202	12.737215
401	1	23.058352	11.740462	13.044464
402	1	29.918831	29.906178	12.336167
403	1	18.278416	12.552448	10.075895
404	1	13.758050	3.018241	15.551553
405	1	21.734876	28.409656	7.716050
406	1	15.988973	16.382647	1.789795
407	1	3.633222	13.857252	25.662608
408	1	17.403870	3.896140	13.148716
409	1	26.814245	11.146520	30.826273
410	1	9.416350	4.731912	32.138768
411	1	8.315272	17.583823	19.896061
412	1	4.481942	16.866196	12.596315
413	1	16.406653	2.792520	30.540899
414	1	10.632342	23.899944	4.855223
415	1	0.677258	15.379581	2.860020
416	1	20.966925	25.716977	11.112867
417	1	24.095370	11.884518	16.508637
418	1	7.836308	19.811193	8.639201
419	1	15.321432	7.510981	18.394830
420	1	22.829575	14.397312	24.831597
421	1	14.644397	25.100504	1.481080
422	1	9.700287	31.168872	26.665545
423	1	24.649221	14.483327	17.124216
424	1	31.358028	7.393893	17.443534
425	1	28.168519	28.403502	10.993950
426	1	23.882720	30.510383	25.686020
427	1	27.686784	12.254742	14.164002
428	1	22.954567	28.521491	26.802266
429	1	18.659594	13.113658	29.715659
430	1	30.597278	16.693778	1.727091
431	1	30.734797	19.486762	4.885719
432	1	31.768613	22.016898	8.300597
433	1	23.711717	31.904150	30.055218
434	1	21.706964	15.010855	10.361914
435	1	4.988953	13.048355	30.824580
436	1	29.406327	24.770131	24.347763
437	1	30.479348	12.482223	0.349742
438	1	15.248221	19.124090	8.487892
439	1	25.339907	9.360954	19.870793
440	1	11.632418	5.713907	21.298891
441	1	30.268396	9.639363	29.505206
442	1	24.935510	16.404539	6.043840
443	1	4.484905	25.871716	25.790395
444	1	31.084677	17.937022	26.330314
445	1	31.614930	19.678919	9.126130
446	1	13.623767	24.572640	7.854798
447	1	22.245898	19.329404	32.002751
448	1	19.662275	1.928866	22.321401
449	1	25.400472	23.230180	16.037866
450	1	5.140783	4.415485	12.016858
451	1	2.760333	19.704317	15.966352
452	1	23.531645	20.714001	19.190601
453	1	23.974642	19.702490	11.039345
454	1	12.190248	14.671271	30.126880
455	1	30.430209	2.602255	9.153386
456	1	12.742680	4.187096	19.433744
457	1	13.874071	8.404200	0.671646
458	1	7.169586	9.120621	1.862712
459	1	11.175673	17.951199	13.608120
460	1	31.979806	21.496154	10.819046
461	1	15.919330	31.750617	20.875556
462	1	11.844222	22.516440	3.394286
463	1	2.829033	24.609236	18.144289
464	1	29.541196	20.307225	16.943649
465	1	26.097602	27.256320	7.280300
466	1	12.786452	17.547500	30.033383
467	1	4.547622	29.708904	17.812397
468	1	2.716510	4.824540	25.125763
469	1	19.635939	19.417885	27.402449
470	1	15.389347	4.106381	9.513240
471	1	28.700156	7.438969	9.203899
472	1	27.105109	10.070455	18.266905
473	1	2.362261	5.719842	29.401340
474	1	27.426385	22.482167	7.742322
475	1	17.671885	11.056501	22.455779
476	1	29.584196	30.273539	9.758432
477	1	3.544132	12.160386	5.589318
478	1	20.516400	25.936427	28.540660
479	1	9.142899	21.280434	17.875035
480	1	17.386889	25.751638	19.255405
481	1	14.747289	10.567562	22.198393
482	1	13.318694	3.277642	2.480219
483	1	29.829220	16.845247	12.845266
484	1	24.341990	7.619350	7.213791
485	1	32.034015	28.445607	12.890907
486	1	16.865645	19.915866	18.421512
487	1	6.970708	21.478152	10.601083
488	1	5.017269	23.914874	24.035018
489	1	31.003523	23.173729	1.759134
490	1	28.467855	17.183783	10.726346
491	1	10.722362	12.547754	4.233225
492	1	2.612150	19.919211	28.412451
493	1	4.115039	26.519294	20.805785
494	1	23.350427	8.423077	19.093848
495	1	6.928437	30.890199	8.830288
496	1	5.208210	10.631460	30.710440
497	1	9.351829	2.974168	2.831327
498	1	12.462710	9.903256	12.395231
499	1	10.807287	22.310207	14.368494
500	1	12.015414	23.150273	12.653848
501	1	21.012735	31.846885	12.237244
502	1	4.185336	3.190534	21.472979
503	1	17.440303	16.520623	11.909889
504	1	11.306765	14.939346	5.182596
505	1	29.483121	15.959083	8.760364
506	1	0.311610	13.081823	7.638727
507	1	10.341266	27.382420	16.343730
508	1	2.080386	25.120474	29.945697
509	1	5.815568	18.101679	22.528369
510	1	20.108503	11.540651	17.642212
511	1	4.247521	23.115901	19.577295
512	1	19.541409	6.209769	6.686150
513	1	14.596255	6.679622	11.456153
514	1	16.523832	5.287603	17.355668
515	1	23.560068	19.722137	2.445832
516	1	12.178707	12.221391	13.392905
517	1	26.745509	22.315562	31.455959
518	1	5.441533	31.719305	26.260694
519	1	30.441982	8.410588	32.069636
520	1	20.797207	4.192162	23.363979
521	1	7.111180	20.531107	26.253611
522	1	27.899820	21.783600	18.299410
523	1	3.312312	9.257872	22.959898
524	1	15.408883	6.618358	31.138196
525	1	3.808423	9.775343	27.568216
526	1	23.224654	9.467418	6.847562
527	1	31.579548	26.495234	20.810881
528	1	23.911384	2.549094	29.509114
529	1	17.189177	3.673336	19.220094
530	1	28.788489	5.142214	2.603502
531	1	28.856206	27.983714	27.006406
532	1	2.337419	13.538833	1.906489
533	1	26.301647	9.150113	8.327733
534	1	3.163476	31.494374	27.386893
535	1	6.064126	23.392628	15.098165
536	1	26.929054	28.510160	23.038955
537	1	19.858689	7.547797	1.459053
538	1	23.549721	27.731654	16.031577
539	1	17.285775	10.005931	4.211675
540	1	31.740789	8.645717	25.549258
541	1	3.681273	28.095154	24.659743
542	1	29.492322	7.419618	15.623567
543	1	15.055639	20.222306	28.761663
544	1	24.195088	22.904255	31.240637
545	1	27.418485	19.416225	10.506460
546	1	2.765762	21.106343	-1.138138
547	1	2.720574	22.933143	22.999636
548	1	25.216022	18.652658	19.596379
549	1	21.006230	12.040032	28.268067
550	1	16.337016	24.804689	16.012136
551	1	8.574461	18.672539	30.715770
552	1	26.278134	21.097719	20.051523
553	1	5.645381	13.948602	21.483568
554	1	6.663567	7.959030	17.808095
555	1	6.829120	2.435431	3.111886
556	1	29.736257	19.629844	28.026149
557	1	6.307414	9.021523	23.908927
558	1	2.678124	8.498930	25.656237
559	1	10.047249	31.513533	17.077316
560	1	20.371782	14.404897	19.907133
561	1	25.670587	31.056978	3.968441
562	1	4.919676	30.797375	19.994328
563	1	1.928404	26.626693	4.885527
564	1	27.512809	28.998201	6.320291
565	1	13.396360	15.877174	2.143780
566	1	9.167630	26.679314	2.632665
567	1	31.090332	13.750032	4.580056
568	1	12.241984	30.272311	13.251521
569	1	5.754796	27.786340	31.991779
570	1	24.954326	10.062454	27.254828
571	1	30.922045	21.552089	29.486510
572	1	29.353605	17.632793	17.011636
573	1	22.631981	15.105615	20.424712
574	1	10.705902	1.033236	28.645987
575	1	29.527083	26.229787	16.845263
576	1	22.627891	20.317212	16.679761
577	1	13.036998	20.140405	7.073084
578	1	17.446954	25.462513	8.074715
579	1	27.997376	2.948241	10.121811
580	1	2.930037	31.519304	10.995584
581	1	21.610962	18.723672	11.789632
582	1	15.428380	1.220106	6.455988
583	1	25.171039	23.360466	8.477111
584	1	27.612281	21.056727	25.193453
585	1	1.281866	2.872823	7.849705
586	1	0.865411	5.265677	11.673540
587	1	29.624387	27.236450	12.828516
588	1	6.261707	6.622902	12.608711
589	1	14.088968	2.542812	31.838478
590	1	4.749705	21.000928	14.575502
591	1	31.053341	3.197386	32.103978
592	1	20.050408	10.700427	26.235794
593	1	30.638451	5.741485	4.932049
594	1	21.899815	0.688459	9.950403
595	1	0.947452	3.160878	26.132104
596	1	3.736787	11.603765	0.859085
597	1	3.826307	14.856478	9.277393
598	1	26.246793	25.676350	19.497121
599	1	7.369496	30.174281	27.073569
600	1	23.030022	21.810931	1.447130
601	1	17.962705	6.438683	22.235140
602	1	4.275584	16.193317	21.798279
603	1	19.998081	3.069587	16.081775
604	1	2.500125	8.985926	10.186889
605	1	27.372157	15.663731	12.542003
606	1	14.726045	13.402685	30.630321
607	1	10.252946	4.145951	26.678488
608	1	26.453025	18.996862	5.704486
609	1	9.480512	9.480897	1.003756
610	1	25.591737	8.811335	14.324468
611	1	6.389488	32.042614	10.994201
612	1	23.316662	17.403208	1.716569
613	1	22.368744	12.596220	20.650510
614	1	21.664415	29.038819	15.256572
615	1	13.200922	16.644322	19.100777
616	1	11.958731	31.484846	21.983684
617	1	30.121568	12.989581	24.801332
618	1	23.842656	11.203963	4.955102
619	1	17.808291	22.735059	15.265776
620	1	22.336912	6.446289	8.425622
621	1	4.646187	31.749582	8.871226
622	1	20.336590	4.012466	13.686788
623	1	21.472520	15.402056	5.201663
624	1	5.762804	6.475592	1.918518
625	1	2.702320	17.547280	5.814647
626	1	26.246824	13.461002	27.378934
627	1	8.178928	22.507461	1.099337
628	1	23.737062	25.537695	4.057690
629	1	24.210403	19.977772	4.701925
630	1	31.224813	11.771213	9.564509
631	1	30.947573	16.178125	15.245883
632	1	28.678817	8.721809	6.966263
633	1	21.220106	21.100406	28.525436
634	1	17.750978	10.319163	8.467304
635	1	12.186754	15.181848	20.808881
636	1	20.504917	15.157050	25.438534
637	1	15.114437	9.305342	7.960592
638	1	7.023397	28.406546	9.170461
639	1	18.049581	6.088064	2.594257
640	1	24.559695	16.991230	8.611417
641	1	6.423476	0.527541	30.606059
642	1	10.492684	8.265712	13.023165
643	1	8.780151	31.611876	7.259169
644	1	8.113868	11.743253	20.565239
645	1	14.260415	11.605304	26.407845
646	1	22.523806	21.683984	23.338046
647	1	14.263890	22.576096	11.841058
648	1	2.134494	18.340804	26.595781
649	1	5.734229	16.489578	28.342436
650	1	27.057013	6.016930	0.494421
651	1	23.723751	8.661293	4.348701
652	1	4.385414	16.311518	17.316353
653	1	21.969714	29.245739	17.822124
654	1	22.341094	19.335186	27.130306
655	1	16.387513	21.338692	24.614403
656	1	4.595545	23.760124	1.357833
657	1	25.982212	17.313179	14.152207
658	1	16.639973	14.149773	14.158089
659	1	1.592678	11.789368	16.409213
660	1	26.641099	4.418565	5.568667
661	1	31.040526	14.295620	22.752391
662	1	3.285786	30.701146	6.288224
663	1	16.267576	16.690944	26.770546
664	1	18.133504	26.479735	5.970766
665	1	1.635426	20.334576	1.096268
666	1	3.875858	13.402573	23.163913
667	1	2.551049	1.433312	5.872878
668	1	9.668718	30.397851	22.514611
669	1	11.422648	22.403068	19.314656
670	1	9.859129	13.396416	14.049518
671	1	17.053331	29.758796	29.565987
672	1	29.350195	12.418528	16.020287
673	1	26.841138	0.756146	9.340229
674	1	27.770302	5.774974	20.320784
675	1	21.800291	23.680110	32.100929
676	1	14.043092	28.417918	12.630020
677	1	5.333934	30.952477	28.817143
678	1	14.999397	18.726245	30.925024
679	1	26.664126	7.574507	18.320272
680	1	14.676954	17.615767	25.017634
681	1	8.869261	8.345122	19.204496
682	1	2.950825	29.218786	4.129889
683	1	30.411486	5.066170	26.693042
684	1	3.522157	17.177960	15.054652
685	1	17.285622	29.791286	22.349944
686	1	8.796436	0.357192	12.514066
687	1	31.954023	1.007292	18.447640
688	1	21.291392	23.242786	2.853614
689	1	18.541948	12.562120	12.588635
690	1	13.243905	0.779121	14.536122
691	1	30.722074	6.435395	10.559556
692	1	24.098648	22.075702	12.057961
693	1	31.471320	13.342898	17.304044
694	1	15.296938	31.823377	26.265582
695	1	10.816142	22.803632	16.790087
696	1	5.790411	30.668723	15.549510
697	1	0.347915	17.743403	12.812291
698	1	22.839295	30.092431	23.307895
699	1	9.248639	29.763326	8.834786
700	1	6.621528	20.145463	23.688147
701	1	27.635867	30.715556	11.603172
702	1	12.352089	17.028069	4.116342
703	1	21.467614	4.176481	6.987386
704	1	30.027896	17.698515	23.625252
705	1	16.792192	10.935608	11.307064
706	1	22.784560	30.961800	14.013137
707	1	25.261408	27.074183	27.036303
708	1	3.224416	29.546188	29.210404
709	1	1.206340	19.265285	21.387978
710	1	5.862632	14.300888	26.794865
711	1	3.913594	24.313669	28.143637
712	1	20.045703	30.911478	14.377636
713	1	3.975872	2.490359	8.086713
714	1	0.535459	21.666727	24.389258
715	1	1.626346	23.186893	9.727501
716	1	5.317629	28.159012	29.590405
717	1	23.699817	25.471979	19.794890
718	1	5.545829	6.125203	10.160225
719	1	21.712433	20.695319	3.732734
720	1	6.776861	21.088493	5.071243
721	1	18.275899	24.432837	27.825918
722	1	9.924860	15.367336	7.238721
723	1	5.001142	16.567879	5.928951
724	1	18.488570	21.374199	17.207932
725	1	2.557909	7.969532	14.570858
726	1	21.231340	24.327723	15.846165
727	1	7.968969	31.422788	0.669005
728	1	14.243001	29.458854	26.587325
729	1	31.156980	30.493522	19.073542
730	1	30.216344	9.053638	13.793636
731	1	28.836183	18.061079	21.294499
732	1	1.532869	15.642815	15.927666
733	1	24.724764	2.862328	22.548315
734	1	6.735754	27.863712	11.874556
735	1	22.276356	10.352758	17.243187
736	1	26.622782	1.139272	11.934249
737	1	26.792839	8.311718	10.731874
738	1	11.943749	22.148815	8.320790
739	1	26.010648	10.649999	10.401509
740	1	16.966384	2.729716	4.702606
741	1	11.741462	16.248402	32.043660
742	1	25.041153	5.265245	22.990477
743	1	31.384262	29.025075	26.657911
744	1	4.909164	5.724392	21.503291
745	1	7.485504	15.904634	6.602811
746	1	19.935280	17.095040	15.755108
747	1	27.920177	13.925944	19.717325
748	1	15.512505	20.853773	6.590769
749	1	8.520113	22.683792	6.023427
750	1	10.126667	11.816108	22.451520
751	1	11.878171	29.188162	31.154005
752	1	16.413721	7.530488	3.992713
753	1	27.204955	26.240439	1.604402
754	1	10.993326	4.222618	17.267992
755	1	28.891615	0.489285	8.262830
756	1	21.738310	27.890882	10.662702
757	1	0.493476	3.734348	5.384154
758	1	18.702170	12.683609	27.171610
759	1	6.070527	22.838450	31.473485
760	1	12.180107	24.814413	24.510927
761	1	2.654894	20.604535	23.212399
762	1	3.727864	18.061301	1.496394
763	1	28.249626	26.949860	14.945538
764	1	10.130195	27.347251	13.708044
765	1	30.211889	11.491967	13.831372
766	1	27.208413	13.835991	2.206445
767	1	11.681395	29.288600	20.941184
768	1	12.605766	30.832073	16.102598
769	1	15.449945	21.210708	31.283307
770	1	10.934036	4.735911	24.287273
771	1	14.702381	26.455205	31.103792
772	1	28.342674	7.683450	1.543743
773	1	31.284855	0.332296	8.843534
774	1	6.603061	22.098678	7.955206
775	1	31.472892	22.120655	5.806068
776	1	29.802582	2.832275	2.242654
777	1	25.150306	12.114230	29.297415
778	1	8.465697	23.585667	14.264236
779	1	17.692266	29.574551	14.124812
780	1	12.622027	25.021873	31.936275
781	1	21.267600	14.771609	15.653151
782	1	19.062090	-0.410247	23.577610
783	1	1.247987	3.363724	17.614399
784	1	17.729780	3.783516	2.685989
785	1	15.778096	4.479919	15.238329
786	1	10.081061	27.883438	22.425847
787	1	10.954199	26.947470	24.772259
788	1	26.362887	27.095429	9.908509
789	1	12.982989	13.094297	15.842188
790	1	17.086665	17.188331	31.337582
791	1	17.237215	8.763777	17.678564
792	1	26.507390	11.561211	1.517965
793	1	5.640664	25.061826	3.744888
794	1	23.140841	27.981721	3.925865
795	1	21.513518	28.043581	24.714568
796	1	24.428508	26.643641	2.032719
797	1	23.665660	8.628920	1.664420
798	1	14.418087	32.047540	12.272187
799	1	1.636458	18.132467	8.731320
800	1	12.935994	21.714509	17.334366
801	1	27.419654	15.738852	26.936989
802	1	23.522994	21.359740	8.891351
803	1	23.758785	31.874289	5.762349
804	1	19.955677	17.249025	4.230313
805	1	9.037685	18.357107	25.342105
806	1	31.824707	27.703352	1.225598
807	1	0.319592	5.188063	21.413358
808	1	2.870736	12.040730	13.375171
809	1	28.444371	14.365366	4.424508
810	1	15.310220	24.979921	5.484329
811	1	1.277938	8.190052	7.394223
812	1	26.399960	1.134811	23.145551
813	1	27.907125	30.873126	23.928994
814	1	13.212110	4.266388	8.098358
815	1	20.432085	16.348986	21.440389
816	1	30.035634	22.346343	12.056254
817	1	14.104630	7.452563	25.044063
818	1	8.700953	3.397478	9.267819
819	1	10.191611	13.582065	20.627231
820	1	6.489559	9.586721	19.848743
821	1	9.973027	20.293222	13.326763
822	1	16.317875	11.686235	13.644781
823	1	27.400592	16.697805	5.186326
824	1	28.862972	18.395366	6.252103
825	1	21.868896	31.343806	16.336716
826	1	10.483883	25.410500	22.326990
827	1	24.927967	15.492982	23.923899
828	1	31.919376	23.536131	26.134650
829	1	13.087396	10.534211	3.304072
830	1	25.316997	30.636533	23.707669
831	1	24.681214	29.140360	21.627525
832	1	15.549690	27.424645	20.730643
833	1	29.697530	1.070682	0.440976
834	1	25.423805	22.319464	1.782237
835	1	26.420721	14.002504	22.206926
836	1	13.304795	6.789261	19.703576
837	1	31.714309	1.643788	24.103739
838	1	30.856024	31.174988	30.956972
839	1	4.519374	0.122167	4.807583
840	1	15.768274	30.719305	1.785458
841	1	29.074382	26.137729	19.290847
842	1	17.074453	13.203979	18.621563
843	1	17.404731	28.268277	7.501166
844	1	6.672026	17.583284	8.657357
845	1	9.344205	12.907217	18.370154
846	1	30.674693	19.682035	22.294995
847	1	19.372795	18.784089	31.987299
848	1	8.690140	10.020168	28.456427
849	1	10.921643	18.782624	11.354600
850	1	27.285168	5.282809	29.942998
851	1	16.237424	9.699261	28.397486
852	1	9.277700	25.850067	28.843751
853	1	6.756671	2.840184	18.307856