#ITEM: NUMBER OF ATOMS

2000 atoms
2 atom types

#ITEM: BOX BOUNDS pp pp pp

0.299875 32.130125 xlo xhi
0.299875 32.130125 ylo yhi
0.299875 32.130125 zlo zhi

  Atoms

1	1	8.082990	21.754953	22.156416
2	1	25.705537	0.661170	28.741972
3	1	19.931735	11.651417	8.393732
4	1	16.149554	26.450820	11.924382
5	1	23.431884	19.818803	24.680322
6	1	3.806506	19.110184	21.342054
7	1	22.815405	23.682448	25.422302
8	1	9.606785	18.577310	18.009115
9	1	15.058448	16.994364	17.018143
10	1	21.806809	3.695117	31.137966
11	1	19.486706	18.767754	8.036313
12	1	6.593565	4.808111	31.802536
13	1	22.349124	11.937135	24.176684
14	1	4.176195	6.666952	5.407037
15	1	3.425504	30.679488	25.067959
16	1	26.001121	19.612079	24.082827
17	1	7.404376	26.550178	30.429096
18	1	15.544124	29.590455	6.343727
19	1	27.898493	18.338018	12.937733
20	1	2.979758	24.701884	8.587730
21	1	31.705497	15.308922	12.524885
22	1	23.615112	28.613697	13.470890
23	1	8.845214	29.352629	17.446093
24	1	20.578703	31.528191	18.504648
25	1	16.636427	29.356381	16.596272
26	1	23.225270	17.291941	28.140889
27	1	30.214215	28.611852	5.201506
28	1	24.393173	26.235478	14.218031
29	1	9.079409	29.010756	20.149900
30	1	17.985372	26.919545	16.292350
31	1	27.909214	2.992259	12.652807
32	1	25.701535	1.322046	31.276539
33	1	21.317900	3.767022	19.322419
34	1	26.165814	20.516692	3.500993
35	1	24.784901	13.017220	24.472844
36	1	5.848554	0.646640	1.398405
37	1	22.025706	18.884249	22.975852
38	1	18.153397	31.817801	1.121842
39	1	25.503299	17.552332	25.555130
40	1	23.658226	18.368966	17.702847
41	1	28.893435	0.583448	21.988541
42	1	17.270142	18.723709	6.749087
43	1	8.432379	26.580694	23.777094
44	1	24.267274	21.450095	14.884385
45	1	22.756003	16.147928	22.770819
46	1	16.241229	27.418462	4.859659
47	1	21.509272	19.216478	18.776783
48	1	16.960783	15.001027	16.475303
49	1	21.554986	9.549928	0.717120
50	1	25.103873	10.277303	2.893083
51	1	10.999899	28.115504	3.643531
52	1	1.377159	7.394767	19.424542
53	1	5.532648	8.373262	26.097445
54	1	5.892863	3.754311	9.617685
55	1	12.397638	16.378072	25.370055
56	1	26.273342	1.733685	20.668011
57	1	15.114564	14.363326	9.019445
58	1	18.776009	15.197398	23.595867
59	1	11.124006	22.391498	25.711237
60	1	21.072079	18.407891	2.199485
61	1	11.578141	17.616776	6.561932
62	1	9.148976	9.066960	15.067458
63	1	13.781615	28.235681	24.500563
64	1	5.144554	4.474614	19.382416
65	1	8.668441	13.235054	2.357441
66	1	24.601040	25.641192	8.755108
67	1	25.092328	6.507848	5.068133
68	1	30.063116	25.703931	8.432422
69	1	25.471423	31.140298	10.832692
70	1	19.056700	3.533107	11.342236
71	1	22.187340	25.470713	21.638077
72	1	4.611419	14.104324	1.192122
73	1	22.222095	2.368276	22.514682
74	1	2.285488	21.567274	14.363864
75	1	30.551799	2.860691	22.163856
76	1	24.001798	18.526054	6.743003
77	1	23.451370	8.459493	31.030970
78	1	23.078316	22.716301	16.930183
79	1	12.111723	24.430203	20.583804
80	1	1.049321	28.573296	15.426974
81	1	7.278149	19.558028	18.377355
82	1	0.793357	20.116950	30.320173
83	1	24.145654	11.263952	19.007972
84	1	10.567349	30.243616	10.991377
85	1	28.870574	30.595655	19.741458
86	1	13.029262	13.492213	2.985104
87	1	30.683318	6.949124	2.730259
88	1	23.380262	4.196844	1.722328
89	1	15.829402	17.653487	29.042978
90	1	14.426190	2.306740	4.606669
91	1	2.761346	3.253015	30.110184
92	1	0.801559	28.816175	20.046343
93	1	14.757394	15.671892	21.040985
94	1	7.936510	30.039686	11.042974
95	1	19.309012	14.644354	11.514204
96	1	1.251158	19.155637	11.080050
97	1	6.050549	18.594533	30.004528
98	1	10.020007	5.481783	10.012653
99	1	6.373607	29.780792	1.728826
100	1	19.472184	17.737915	13.058863
101	1	19.193915	11.828704	31.911089
102	1	21.309978	16.870081	31.954121
103	1	7.947622	18.995301	3.642703
104	1	7.083806	16.415564	26.137285
105	1	6.956117	25.061991	25.161091
106	1	20.018952	18.874612	21.430984
107	1	25.523283	4.117953	20.508582
108	1	22.541251	20.852877	13.189737
109	1	5.535586	23.451669	26.432316
110	1	4.829288	20.822340	12.003106
111	1	16.327963	3.376076	28.162180
112	1	13.491404	4.056369	24.820574
113	1	20.316457	1.582472	0.439266
114	1	20.008546	5.456026	30.396019
115	1	7.155942	11.849430	29.957961
116	1	10.618757	17.264923	23.635068
117	1	6.556682	7.901961	8.951137
118	1	20.831068	17.178760	27.170577
119	1	5.235661	29.411323	7.641365
120	1	30.267959	20.261614	7.222038
121	1	20.228398	8.703537	13.029125
122	1	23.322734	30.358384	3.511760
123	1	1.203382	15.636247	8.386676
124	1	2.979680	29.478560	8.472569
125	1	8.308692	16.216384	23.832466
126	1	1.030349	4.782798	31.471670
127	1	9.631115	4.551960	22.394359
128	1	0.639026	8.683270	3.200715
129	1	3.199268	0.453883	29.932472
130	1	23.575917	4.571604	18.789881
131	1	28.755238	5.294313	6.584587
132	1	19.523906	29.517008	19.573557
133	1	31.921583	4.576343	9.423100
134	1	3.632525	11.234445	10.809860
135	1	17.340413	5.157721	26.342143
136	1	2.157539	3.564705	15.316242
137	1	6.927997	15.781387	11.995980
138	1	12.094447	9.871539	31.628400
139	1	13.943534	0.725280	22.245264
140	1	26.795087	12.614275	9.410296
141	1	16.629426	4.649952	0.517263
142	1	31.990202	7.753278	15.162097
143	1	1.870942	26.506153	16.706710
144	1	27.455132	9.677066	2.963231
145	1	9.365738	24.148576	2.603065
146	1	6.660664	27.400610	2.869476
147	1	13.807684	18.277388	20.739538
148	1	6.217852	13.880969	9.939037
149	1	16.232379	6.101011	13.311794
150	1	16.713119	29.736434	27.118214
151	1	27.942274	7.590317	13.615624
152	1	7.456846	8.914895	13.254973
153	1	21.128405	11.056669	30.566411
154	1	29.032320	29.709517	21.992657
155	1	24.634432	15.563523	12.843605
156	1	6.514934	21.436488	16.647698
157	1	8.820005	26.204743	26.279272
158	1	21.123543	5.749093	3.027901
159	1	28.288988	12.852430	32.059166
160	1	27.884629	16.231110	2.726148
161	1	31.784907	18.654550	16.863197
162	1	31.542559	1.465474	4.455249
163	1	28.005157	21.157299	12.426849
164	1	10.354416	29.577894	15.354856
165	1	3.655641	23.198555	30.726394
166	1	4.258105	28.667763	2.032595
167	1	22.090635	9.887345	11.662260
168	1	19.185789	4.579698	18.001788
169	1	11.975407	17.899368	17.441705
170	1	6.355277	26.060055	16.554954
171	1	28.008830	29.779862	31.269339
172	1	14.340114	11.550797	11.854179
173	1	8.411932	15.257372	14.039215
174	1	3.110087	24.881243	3.227946
175	1	9.003040	5.891853	25.348061
176	1	27.073847	24.259337	23.079603
177	1	14.411707	15.356531	28.649211
178	1	21.940002	15.794177	29.739917
179	1	25.401739	11.301948	14.492782
180	1	21.812004	24.671825	4.968946
181	1	25.856461	7.700852	2.978814
182	1	16.319066	10.973583	6.431518
183	1	29.648069	25.218524	1.366119
184	1	23.112935	10.653580	29.099354
185	1	20.352336	26.605260	22.781825
186	1	4.257503	12.934639	3.336135
187	1	4.291736	16.450997	26.242329
188	1	5.861792	12.868415	24.580375
189	1	2.338553	27.289721	2.378379
190	1	9.333213	6.048900	27.854588
191	1	12.988660	7.596690	6.243827
192	1	26.838793	16.566862	20.138079
193	1	9.894817	10.291187	7.693136
194	1	17.598082	7.229662	16.249491
195	1	17.085293	14.565074	5.456818
196	1	31.253079	10.848675	4.195092
197	1	14.878490	30.825066	28.769218
198	1	26.719690	2.839375	29.500826
199	1	19.288151	9.151961	18.744943
200	1	24.452312	17.965386	23.054992
201	1	12.210629	15.604469	27.701893
202	1	16.320265	25.255323	29.471464
203	1	26.665702	31.889652	16.417292
204	1	17.994205	29.591079	9.697172
205	1	9.259599	0.452342	30.584045
206	1	16.329960	1.692612	8.681440
207	1	30.657628	0.575460	28.740309
208	1	17.580040	15.343057	9.494450
209	1	5.842670	11.933514	16.188419
210	1	21.480915	11.993737	15.532028
211	1	28.752608	25.976419	10.708618
212	1	23.751542	15.585649	3.758825
213	1	9.068434	17.704872	7.621918
214	1	14.104605	23.800761	3.514128
215	1	1.855091	26.749825	19.328848
216	1	10.562908	25.168586	17.683097
217	1	16.683681	22.271533	11.052533
218	1	17.795195	3.411914	9.318323
219	1	17.689357	11.007516	17.563228
220	1	6.517280	18.234843	25.048569
221	1	19.798430	21.918144	21.062137
222	1	17.029875	27.483309	30.728397
223	1	29.391983	8.219073	11.507634
224	1	29.541565	21.367551	3.053446
225	1	25.130559	25.951816	29.507482
226	1	7.180470	26.115515	9.589866
227	1	17.443668	31.664962	15.402578
228	1	6.996588	20.617330	31.598251
229	1	15.080854	3.066699	17.654174
230	1	1.650577	13.757402	12.232334
231	1	8.471424	30.628904	4.969041
232	1	31.894827	12.720241	2.472593
233	1	2.891864	0.634365	0.921271
234	1	6.513339	1.348316	16.272379
235	1	15.194253	3.041050	23.048646
236	1	13.376389	17.771616	8.207171
237	1	17.955863	31.543205	17.980219
238	1	2.917236	15.665815	24.014435
239	1	6.131299	7.856483	6.646288
240	1	1.499527	22.596054	18.676900
241	1	19.148059	21.921338	10.705903
242	1	18.775538	21.764758	27.839571
243	1	14.102447	9.333223	10.362285
244	1	2.446883	11.562990	22.285127
245	1	31.204286	1.302775	12.960327
246	1	7.934835	24.499608	7.636249
247	1	14.653950	15.086431	15.400777
248	1	10.526710	13.270716	11.657417
249	1	25.790470	23.618567	29.442390
250	1	24.895242	16.088541	21.445753
251	1	12.809424	10.824849	17.272617
252	1	14.845472	15.785581	12.902410
253	1	21.472131	9.690419	4.914282
254	1	10.712525	9.095265	17.345813
255	1	2.649577	5.081394	22.694363
256	1	12.850649	25.298067	5.457560
257	1	14.031440	25.662081	15.471413
258	1	20.982932	25.957476	31.203878
259	1	4.377118	27.953393	15.798996
260	1	6.138799	29.848443	24.547097
261	1	9.599232	29.777325	31.613030
262	1	10.456071	13.808460	28.122794
263	1	21.763653	21.272784	10.722462
264	1	10.083060	8.103357	2.994101
265	1	5.530164	24.618331	8.242407
266	1	2.040525	16.254070	30.560069
267	1	2.194852	22.892925	2.150583
268	1	29.807457	5.553632	22.359825
269	1	5.143289	12.003531	28.215757
270	1	5.623403	14.354871	17.265359
271	1	12.593386	20.449730	20.735951
272	1	16.792753	9.852642	15.327240
273	1	11.827769	5.202554	28.518872
274	1	9.783619	20.261780	26.921331
275	1	4.210847	0.964742	15.348601
276	1	25.991744	4.574721	13.739041
277	1	24.913421	25.270185	24.795212
278	1	2.386823	17.613289	17.215023
279	1	27.398087	29.697391	15.764056
280	1	7.743150	10.217934	11.106152
281	1	8.678491	12.004730	32.084889
282	1	26.569239	18.968583	21.565762
283	1	27.315372	14.985445	9.962720
284	1	18.328459	25.353982	23.303171
285	1	19.660198	7.021689	17.167581
286	1	2.271194	3.089012	1.098788
287	1	30.849766	1.740117	6.864050
288	1	29.488106	14.887227	11.180123
289	1	29.648549	2.665078	14.595445
290	1	6.985534	1.930105	22.507821
291	1	5.573230	2.355574	5.712003
292	1	6.318293	31.511127	6.347957
293	1	1.768878	2.526164	3.654853
294	1	29.850026	9.212350	2.831582
295	1	9.942309	12.744470	24.949873
296	1	23.234538	14.375416	31.858072
297	1	17.432970	14.430899	25.909986
298	1	18.897117	8.707815	26.962139
299	1	18.544711	7.618965	9.167604
300	1	13.209906	27.332038	0.979303
301	1	6.141074	2.115431	25.747121
302	1	4.929624	4.205536	26.490583
303	1	8.119315	15.290635	27.973308
304	1	7.903260	6.256945	6.116100
305	1	2.648546	15.997203	1.128662
306	1	3.988667	25.153483	15.819921
307	1	1.165009	23.986590	4.634239
308	1	10.869902	18.629459	31.538070
309	1	1.236163	11.897854	0.356237
310	1	3.071208	25.385044	23.494513
311	1	27.599471	11.305157	7.111986
312	1	2.264116	15.750892	13.527571
313	1	10.976485	30.553772	3.829375
314	1	17.542244	29.588064	31.934459
315	1	21.839186	11.409039	6.601452
316	1	13.650474	11.186000	6.607132
317	1	4.411036	31.353771	13.078853
318	1	14.655214	11.909555	18.836268
319	1	13.094396	19.214277	10.155056
320	1	23.186736	31.853993	18.607345
321	1	26.946095	21.572886	22.548996
322	1	29.209928	16.532234	19.348946
323	1	29.006162	4.509335	24.538816
324	1	12.761581	29.245672	28.659451
325	1	12.041127	1.653203	20.203300
326	1	1.283511	6.803252	9.706326
327	1	12.118590	8.968017	24.844570
328	1	28.606487	27.757437	8.570610
329	1	19.294680	14.917495	4.176782
330	1	29.147134	8.644211	17.953473
331	1	7.152718	23.142432	3.449916
332	1	4.669190	10.336289	3.152609
333	1	10.925523	17.874163	27.188270
334	1	1.844883	30.164947	21.764004
335	1	7.543369	28.699168	22.670229
336	1	29.010466	15.562534	6.517084
337	1	12.367086	2.638515	29.731380
338	1	20.634947	11.294735	22.292539
339	1	7.657593	29.250702	6.868686
340	1	25.864395	24.556682	10.753844
341	1	10.939129	14.124401	9.334501
342	1	24.380037	1.346667	10.083381
343	1	29.478565	0.623559	3.012039
344	1	17.490323	17.921374	9.341360
345	1	11.429906	20.564935	1.636771
346	1	7.439841	16.473549	30.207708
347	1	27.434434	20.121826	27.725626
348	1	28.331631	16.625075	14.960253
349	1	7.029116	2.885835	29.891399
350	1	16.895289	31.701321	12.739230
351	1	22.631780	7.880808	21.525939
352	1	1.786527	30.748204	31.265996
353	1	8.162852	16.040840	2.516197
354	1	22.496807	10.304459	26.442641
355	1	17.922579	2.300858	0.493997
356	1	20.913011	13.428543	13.495000
357	1	17.743988	8.644666	2.062301
358	1	21.634506	12.318223	1.271164
359	1	15.973025	29.778990	24.647823
360	1	2.843752	3.987691	27.638658
361	1	10.657310	26.537881	5.407887
362	1	25.432544	2.560040	27.195043
363	1	24.629983	9.849873	12.316144
364	1	17.333555	25.689161	25.579126
365	1	27.797052	25.198591	3.853105
366	1	28.792010	10.191774	4.998840
367	1	28.385132	19.596277	23.282287
368	1	27.598835	20.561666	1.283569
369	1	2.496324	1.986209	19.460355
370	1	27.655375	3.405985	19.071687
371	1	25.171015	24.436105	27.003832
372	1	6.457882	9.519972	15.538518
373	1	29.169714	0.666951	5.480837
374	1	25.631452	24.664089	0.404114
375	1	19.298636	16.340989	30.578767
376	1	27.970641	1.518233	27.577286
377	1	5.706367	18.751626	13.767776
378	1	7.271470	2.411512	11.337884
379	1	3.110010	0.432886	21.372370
380	1	11.825835	4.895830	30.959528
381	1	16.848970	27.203870	9.735770
382	1	5.676623	15.213459	7.883960
383	1	3.350565	28.760019	20.003597
384	1	20.597970	6.523612	22.184274
385	1	30.668685	24.211097	21.075482
386	1	25.655104	28.794494	11.724183
387	1	15.203912	5.196645	19.352434
388	1	22.578316	25.926799	24.063660
389	1	6.828659	30.349605	13.104525
390	1	29.319293	4.849131	9.047233
391	1	18.065859	23.187753	8.746132
392	1	21.279427	8.044275	26.168614
393	1	14.024738	25.676846	19.874563
394	1	26.400996	25.303401	15.172007
395	1	16.729489	1.285516	19.090915
396	1	21.098474	5.057571	11.599265
397	1	4.204992	27.296127	11.925889
398	1	6.472721	3.915125	16.000927
399	1	20.736263	4.600010	25.697397
400	1	21.126145	29.232125	12.748575
401	1	23.043398	11.732928	13.037546
402	1	29.905549	29.925730	12.352245
403	1	18.272903	12.558987	10.050136
404	1	13.707003	3.038630	15.550802
405	1	21.733943	28.408789	7.725181
406	1	16.034328	16.434521	1.771527
407	1	3.616088	13.851820	25.648963
408	1	17.367542	3.906561	13.121965
409	1	26.858028	11.148887	30.819427
410	1	9.455420	4.708553	32.029211
411	1	8.302504	17.590069	19.905567
412	1	4.507115	16.824830	12.597451
413	1	16.454560	2.785370	30.492993
414	1	10.611554	23.919313	4.863037
415	1	0.651869	15.448742	2.758215
416	1	20.966726	25.708588	11.121891
417	1	24.073749	11.877649	16.497225
418	1	7.841522	19.803454	8.646222
419	1	15.317610	7.514227	18.380151
420	1	22.820683	14.400334	24.817383
421	1	14.650233	25.117005	1.488716
422	1	9.703409	31.187012	26.671973
423	1	24.635208	14.479509	17.121136
424	1	31.352907	7.404001	17.466874
425	1	28.151742	28.407092	11.009089
426	1	23.893246	30.523408	25.694271
427	1	27.669517	12.236755	14.165676
428	1	22.953711	28.539688	26.804714
429	1	18.663550	13.128014	29.713213
430	1	30.535524	16.657260	1.642456
431	1	30.712048	19.480119	4.877408
432	1	31.756470	21.999781	8.317041
433	1	23.715431	31.908711	30.060433
434	1	21.695642	15.004035	10.352367
435	1	5.035587	13.024540	30.833988
436	1	29.389320	24.775447	24.384936
437	1	30.531294	12.375133	0.336066
438	1	15.244030	19.115950	8.496525
439	1	25.325967	9.365706	19.879256
440	1	11.633040	5.716096	21.285382
441	1	30.336524	9.645370	29.588421
442	1	24.949158	16.400369	6.048034
443	1	4.480452	25.878429	25.807725
444	1	31.075313	17.949040	26.313948
445	1	31.618553	19.645056	9.118158
446	1	13.617617	24.562513	7.872686
447	1	22.232983	19.352854	31.997119
448	1	19.684563	1.950460	22.295337
449	1	25.415285	23.237222	16.056967
450	1	5.119672	4.382003	12.018950
451	1	2.562051	19.628573	15.916087
452	1	23.523292	20.715084	19.179831
453	1	23.971632	19.692514	11.044918
454	1	12.346228	14.802504	30.080589
455	1	30.424380	2.587175	9.157771
456	1	12.742501	4.185238	19.428003
457	1	13.863478	8.341101	0.643212
458	1	8.310001	6.571447	3.474307
459	1	11.156286	17.911640	13.603053
460	1	31.982077	21.451489	10.829471
461	1	15.913534	31.753643	20.860955
462	1	11.843051	22.527266	3.429955
463	1	2.797431	24.597797	18.127909
464	1	29.537395	20.301199	16.933462
465	1	26.085799	27.258012	7.291853
466	1	12.769740	17.648377	30.053310
467	1	4.549278	29.719596	17.835469
468	1	2.727306	4.855935	25.162985
469	1	19.624509	19.424428	27.378074
470	1	15.346762	4.109962	9.527024
471	1	28.688752	7.429999	9.220237
472	1	27.096633	10.071271	18.274175
473	1	2.421167	5.765178	29.468226
474	1	27.429567	22.467664	7.783757
475	1	17.709375	11.051085	22.409760
476	1	29.572156	30.263553	9.772318
477	1	3.447360	12.144953	5.530094
478	1	20.508121	25.935872	28.542326
479	1	9.129241	21.274133	17.888154
480	1	17.382579	25.742994	19.253382
481	1	14.763307	10.575637	22.155724
482	1	13.151355	3.504819	2.851925
483	1	29.831916	16.813571	12.860023
484	1	24.347234	7.615864	7.207431
485	1	32.016129	28.438896	12.915195
486	1	16.838483	19.919903	18.452054
487	1	6.962222	21.451847	10.599371
488	1	5.001171	23.924692	24.040030
489	1	30.979055	23.168591	1.765862
490	1	28.479312	17.147748	10.723327
491	1	10.724052	12.571364	4.112746
492	1	2.589408	19.927979	28.409818
493	1	4.115987	26.550277	20.842255
494	1	23.339742	8.423341	19.092584
495	1	6.907533	30.821453	8.861961
496	1	5.224302	10.532388	30.818900
497	1	9.636445	2.642088	2.759924
498	1	12.485488	9.831384	12.395338
499	1	10.783811	22.260865	14.371303
500	1	11.999689	23.121286	12.663153
501	1	20.994062	31.848647	12.241372
502	1	4.187177	3.219202	21.506691
503	1	17.420355	16.496627	11.896875
504	1	11.347493	15.014145	5.098695
505	1	29.535273	15.912411	8.744375
506	1	0.322724	13.069627	7.759909
507	1	10.335392	27.366201	16.357233
508	1	2.065875	25.137664	29.952802
509	1	5.791668	18.096414	22.529830
510	1	20.092841	11.533115	17.613441
511	1	4.228297	23.137682	19.583179
512	1	19.534794	6.228338	6.691533
513	1	14.519682	6.666329	11.461540
514	1	16.546048	5.310726	17.345618
515	1	23.574779	19.756022	2.461843
516	1	12.145630	12.190267	13.345004
517	1	26.735558	22.321956	31.448667
518	1	5.446381	31.752507	26.284594
519	1	30.476801	8.411354	32.102848
520	1	20.804688	4.205712	23.362098
521	1	7.110379	20.509605	26.223868
522	1	27.870356	21.787879	18.292059
523	1	3.353952	9.293574	22.952429
524	1	15.393189	6.596452	31.131644
525	1	3.855630	9.742378	27.672328
526	1	23.227308	9.466544	6.842973
527	1	31.574461	26.510534	20.801308
528	1	23.927257	2.555046	29.516873
529	1	17.192074	3.680775	19.211425
530	1	28.782865	5.157862	2.639739
531	1	28.867169	28.019601	27.026021
532	1	2.324282	13.595905	1.872602
533	1	26.298036	9.154867	8.319343
534	1	3.187290	31.532495	27.420743
535	1	6.048218	23.380793	15.103722
536	1	26.935042	28.526111	23.055577
537	1	19.868918	7.562756	1.454631
538	1	23.546509	27.741124	16.044658
539	1	17.285331	10.039809	4.156481
540	1	31.831280	8.736073	25.659069
541	1	3.679590	28.114741	24.687164
542	1	29.476174	7.413369	15.640292
543	1	15.072976	20.312126	28.746055
544	1	24.186103	22.930418	31.235968
545	1	27.427815	19.381177	10.503024
546	1	2.735744	21.113950	-1.151486
547	1	2.691561	22.947524	23.000395
548	1	25.215933	18.651721	19.590204
549	1	21.023720	12.025704	28.248852
550	1	16.344774	24.802911	16.022814
551	1	8.559776	18.709824	30.675770
552	1	26.277723	21.096251	20.052545
553	1	5.645562	13.943817	21.470057
554	1	6.662642	7.958641	17.813459
555	1	6.975278	2.423452	3.172744
556	1	29.726543	19.632856	28.024173
557	1	6.300157	9.021783	23.919963
558	1	2.695784	8.555420	25.698141
559	1	10.039749	31.513068	17.080072
560	1	20.365906	14.419696	19.897618
561	1	25.657949	31.050979	3.974031
562	1	4.920220	30.807761	20.009547
563	1	1.910661	26.616686	4.896917
564	1	27.492369	28.994942	6.325828
565	1	13.433932	15.956080	2.104009
566	1	9.172174	26.641795	2.629143
567	1	31.029429	13.824984	4.418209
568	1	12.238296	30.253924	13.270101
569	1	5.754218	27.800194	32.022811
570	1	24.967516	10.067332	27.259428
571	1	30.919095	21.538853	29.485966
572	1	29.375893	17.626650	17.018452
573	1	22.625415	15.114161	20.415943
574	1	10.677103	1.014107	28.619633
575	1	29.507003	26.276747	16.871962
576	1	22.631479	20.321912	16.647705
577	1	13.061214	20.130368	7.118127
578	1	17.460882	25.457052	8.105219
579	1	27.984384	2.942672	10.123402
580	1	2.914469	31.482900	11.040284
581	1	21.614601	18.714754	11.793209
582	1	15.452688	1.209212	6.477104
583	1	25.167069	23.351990	8.490673
584	1	27.600634	21.068730	25.180461
585	1	1.266037	2.859288	7.878249
586	1	0.839329	5.246350	11.692621
587	1	29.604570	27.277452	12.838787
588	1	6.246697	6.579358	12.637447
589	1	14.145202	2.378823	31.609326
590	1	4.728958	21.002290	14.556636
591	1	31.149741	3.224866	32.094162
592	1	20.064714	10.695981	26.215943
593	1	30.628202	5.728606	4.944064
594	1	21.878222	0.694292	9.946915
595	1	0.960757	3.213073	26.180965
596	1	3.781021	11.676207	0.902915
597	1	3.822121	14.837084	9.211798
598	1	26.232949	25.692086	19.495124
599	1	7.380884	30.185271	27.089544
600	1	23.021457	21.825432	1.442856
601	1	17.973970	6.450634	22.227901
602	1	4.263038	16.184604	21.787217
603	1	20.005830	3.076676	16.063820
604	1	2.456783	8.992756	10.245249
605	1	27.374798	15.635400	12.540770
606	1	14.770099	13.466827	30.614972
607	1	10.263875	4.165405	26.669100
608	1	26.442030	18.977280	5.722557
609	1	9.679243	9.616531	0.873397
610	1	25.571825	8.810588	14.330819
611	1	6.357684	31.987475	11.023316
612	1	23.316776	17.448179	1.715317
613	1	22.369752	12.606492	20.644604
614	1	21.661254	29.041989	15.261560
615	1	13.195929	16.634106	19.066442
616	1	11.946691	31.486861	21.982195
617	1	30.140932	12.967934	24.815806
618	1	23.859536	11.199619	4.951560
619	1	17.796981	22.723903	15.273919
620	1	22.316914	6.441297	8.417474
621	1	4.607184	31.684648	8.912326
622	1	20.338233	4.016302	13.670098
623	1	21.483741	15.400063	5.202439
624	1	5.942354	6.414935	2.017128
625	1	2.564029	17.530966	5.953137
626	1	26.230337	13.499236	27.341145
627	1	8.170849	22.550735	1.063161
628	1	23.725100	25.535836	4.059711
629	1	24.201931	19.970283	4.729000
630	1	31.213047	11.752865	9.618656
631	1	30.919393	16.071055	15.291804
632	1	28.687113	8.715389	6.982920
633	1	21.203967	21.106907	28.514378
634	1	17.758176	10.356005	8.435299
635	1	12.186714	15.183503	20.787853
636	1	20.486373	15.145252	25.440538
637	1	14.971363	9.206542	7.774342
638	1	7.003606	28.360260	9.205423
639	1	18.054235	6.093174	2.586440
640	1	24.570185	16.980063	8.609692
641	1	6.459547	0.549698	30.607399
642	1	10.526023	8.204485	13.024520
643	1	8.787208	31.533205	7.285581
644	1	8.119186	11.739828	20.536872
645	1	14.262209	11.654615	26.343408
646	1	22.519680	21.689354	23.325924
647	1	14.254096	22.556604	11.857111
648	1	2.104519	18.360787	26.593850
649	1	5.724459	16.485130	28.318126
650	1	27.080171	6.016440	0.526550
651	1	23.738207	8.658543	4.348331
652	1	4.422544	16.296766	17.308339
653	1	21.968909	29.248815	17.827890
654	1	22.330615	19.338406	27.115724
655	1	16.384781	21.343933	24.593140
656	1	4.576481	23.763337	1.390240
657	1	25.989125	17.298624	14.150155
658	1	16.631023	14.143052	14.098305
659	1	1.615936	11.809160	16.393428
660	1	26.635960	4.408386	5.573288
661	1	31.037993	14.297609	22.734065
662	1	3.246350	30.683040	6.331943
663	1	16.237093	16.681725	26.777956
664	1	18.134787	26.489316	5.988665
665	1	1.601244	20.341592	1.095967
666	1	3.863387	13.412660	23.149522
667	1	2.484846	1.433532	5.901140
668	1	9.661751	30.401854	22.522570
669	1	11.401593	22.383381	19.312041
670	1	9.837404	13.325992	13.999649
671	1	17.074737	29.753269	29.554848
672	1	29.326596	12.408404	16.048143
673	1	26.822153	0.758874	9.343865
674	1	27.768654	5.786677	20.338230
675	1	21.785981	23.687297	32.099513
676	1	14.040022	28.397547	12.652522
677	1	5.361107	30.989918	28.837053
678	1	15.013983	18.805901	30.886707
679	1	26.656751	7.581888	18.320902
680	1	14.654999	17.626679	25.037671
681	1	8.866727	8.346016	19.198739
682	1	2.916315	29.209548	4.152786
683	1	30.440954	5.072629	26.707869
684	1	3.532644	17.099831	15.047083
685	1	17.288846	29.800676	22.347909
686	1	8.777851	0.333679	12.539062
687	1	31.956338	1.029542	18.481320
688	1	21.292155	23.253215	2.863454
689	1	18.521088	12.558318	12.562891
690	1	13.243379	0.762378	14.564967
691	1	30.702527	6.418346	10.578038
692	1	24.123743	22.064216	12.082306
693	1	31.469489	13.424872	17.243283
694	1	15.296376	31.834487	26.264248
695	1	10.793413	22.777892	16.787345
696	1	5.793467	30.672462	15.568692
697	1	0.359300	17.723032	12.777536
698	1	22.844892	30.101538	23.313632
699	1	9.233981	29.715658	8.869524
700	1	6.591918	20.143378	23.675016
701	1	27.618402	30.723500	11.606643
702	1	12.382161	17.135136	4.046514
703	1	21.448303	4.182300	6.987722
704	1	30.022208	17.703173	23.611962
705	1	16.764069	10.934676	11.230943
706	1	22.778212	30.963412	14.017338
707	1	25.252093	27.086748	27.045535
708	1	3.259936	29.575831	29.243792
709	1	1.196841	19.279177	21.366422
710	1	5.859853	14.286726	26.781238
711	1	3.889266	24.328487	28.148525
712	1	20.033888	30.921328	14.384889
713	1	3.945463	2.460847	8.107630
714	1	0.512763	21.683046	24.367586
715	1	1.611270	23.154804	9.772187
716	1	5.327659	28.172356	29.616724
717	1	23.696148	25.479745	19.800818
718	1	5.497052	6.126537	10.173041
719	1	21.705759	20.699154	3.744699
720	1	6.753965	21.111285	5.046183
721	1	18.265217	24.441194	27.820632
722	1	9.936964	15.384981	7.183753
723	1	4.944136	16.703732	5.911448
724	1	18.471463	21.360500	17.209343
725	1	2.541275	7.941933	14.602378
726	1	21.239860	24.323747	15.846136
727	1	7.940967	31.340948	0.674955
728	1	14.241013	29.475936	26.586644
729	1	31.158629	30.523186	19.109221
730	1	30.199196	9.044464	13.810401
731	1	28.839103	18.069554	21.285157
732	1	1.525210	15.529780	15.932498
733	1	24.733154	2.871468	22.564102
734	1	6.731786	27.829340	11.913968
735	1	22.256252	10.348164	17.236863
736	1	26.606663	1.145830	11.935052
737	1	26.772582	8.304019	10.716382
738	1	11.943483	22.135681	8.331645
739	1	25.998871	10.652061	10.394825
740	1	16.943538	2.750200	4.704158
741	1	11.766901	16.336226	32.020957
742	1	25.045696	5.274206	23.009038
743	1	31.395910	29.044637	26.680715
744	1	4.910372	5.743682	21.531452
745	1	7.442168	16.002633	6.590230
746	1	19.913806	17.088171	15.750176
747	1	27.908387	13.913548	19.728334
748	1	15.525007	20.869316	6.606106
749	1	8.508356	22.699489	6.016277
750	1	10.119904	11.813867	22.424125
751	1	11.906788	29.228427	31.203462
752	1	16.438053	7.543240	3.962482
753	1	27.198078	26.239847	1.612461
754	1	11.032204	4.202365	17.256727
755	1	28.875841	0.475709	8.269909
756	1	21.730472	27.891980	10.676010
757	1	0.517977	3.726670	5.395840
758	1	18.727886	12.692241	27.153765
759	1	6.033575	22.857794	31.477583
760	1	12.173488	24.817450	24.511352
761	1	2.637449	20.617379	23.203641
762	1	3.669568	18.121206	1.518563
763	1	28.250350	26.942523	14.939956
764	1	10.120269	27.322231	13.728278
765	1	30.202849	11.471980	13.848584
766	1	27.196292	13.827326	2.178358
767	1	11.671776	29.286225	20.947374
768	1	12.599762	30.818777	16.125613
769	1	15.424111	21.263917	31.278115
770	1	10.955653	4.743453	24.275456
771	1	14.683498	26.483138	31.109673
772	1	28.382806	7.686141	1.560143
773	1	31.263420	0.309224	8.862360
774	1	6.609475	22.073376	7.943339
775	1	31.437644	22.131905	5.818989
776	1	29.853066	2.888063	2.206899
777	1	25.173768	12.108049	29.276461
778	1	8.453504	23.545989	14.279338
779	1	17.687800	29.561768	14.145967
780	1	12.592886	25.092244	31.947880
781	1	21.257889	14.770936	15.637611
782	1	19.062934	-0.368962	23.556070
783	1	1.244060	3.376417	17.646122
784	1	17.691433	3.778889	2.667432
785	1	15.758045	4.488685	15.242264
786	1	10.073409	27.884180	22.434176
787	1	10.946151	26.950615	24.775036
788	1	26.347838	27.094167	9.925481
789	1	12.989551	13.076289	15.815922
790	1	17.124371	17.246894	31.313748
791	1	17.252008	8.716396	17.631332
792	1	26.536021	11.552363	1.506026
793	1	5.604245	25.045728	3.753979
794	1	23.130705	27.980917	3.932127
795	1	21.509990	28.050678	24.719217
796	1	24.416981	26.645675	2.034144
797	1	23.686067	8.628702	1.664481
798	1	14.413729	32.033509	12.300779
799	1	1.635240	18.097914	8.678579
800	1	12.909307	21.687790	17.340756
801	1	27.393952	15.767636	26.880281
802	1	23.519720	21.346509	8.893223
803	1	23.739593	31.876075	5.761023
804	1	19.969279	17.268989	4.231385
805	1	9.029419	18.331520	25.339666
806	1	31.808342	27.699160	1.237200
807	1	0.325980	5.237125	21.442128
808	1	2.870313	12.026574	13.364463
809	1	28.429989	14.360477	4.388145
810	1	15.296618	24.992101	5.488305
811	1	1.202703	8.191188	7.386852
812	1	26.415590	1.150241	23.166199
813	1	27.920390	30.892474	23.952807
814	1	13.144300	4.211725	8.172811
815	1	20.426122	16.362925	21.438414
816	1	30.024038	22.309008	12.051770
817	1	14.135588	7.472153	25.006352
818	1	8.620218	3.364996	9.308407
819	1	10.203016	13.576454	20.606665
820	1	6.490646	9.595522	19.836479
821	1	9.959154	20.250288	13.314256
822	1	16.305806	11.677910	13.600332
823	1	27.410548	16.679777	5.180752
824	1	28.856507	18.379811	6.243132
825	1	21.868403	31.347971	16.341964
826	1	10.480297	25.411982	22.331990
827	1	24.922034	15.496731	23.912237
828	1	31.906132	23.548451	26.137655
829	1	13.057871	11.157470	3.687277
830	1	25.327365	30.649364	23.722008
831	1	24.687660	29.151436	21.637445
832	1	15.542178	27.416543	20.727186
833	1	29.722909	1.105278	0.454788
834	1	25.416915	22.320209	1.780582
835	1	26.414736	14.000947	22.203601
836	1	13.304079	6.789890	19.695818
837	1	31.732185	1.684493	24.153263
838	1	30.907052	31.198151	31.008628
839	1	4.450225	0.108473	4.875189
840	1	15.785965	30.726641	1.792282
841	1	29.081370	26.154076	19.315087
842	1	17.079905	13.200052	18.570419
843	1	17.411738	28.260675	7.529326
844	1	6.690933	17.565973	8.638193
845	1	9.358011	12.886476	18.349293
846	1	30.668872	19.686868	22.289618
847	1	19.371969	18.814985	31.982039
848	1	8.703701	10.017328	28.404954
849	1	10.918446	18.748700	11.339271
850	1	27.326443	5.278810	29.974285
851	1	16.288468	9.698128	28.392244
852	1	9.293074	25.848878	28.842755
853	1	6.731814	2.804675	18.310813