#ITEM: NUMBER OF ATOMS

2000 atoms
2 atom types

#ITEM: BOX BOUNDS pp pp pp

0.299875 32.130125 xlo xhi
0.299875 32.130125 ylo yhi
0.299875 32.130125 zlo zhi

  Atoms

1	1	8.080430	21.759189	22.155656
2	1	25.707271	0.661620	28.741545
3	1	19.932894	11.650688	8.392318
4	1	16.147479	26.449157	11.924995
5	1	23.430123	19.819179	24.681397
6	1	3.807003	19.112788	21.342129
7	1	22.814764	23.682126	25.424734
8	1	9.605586	18.577110	18.007533
9	1	15.058169	16.996481	17.018252
10	1	21.806193	3.695886	31.140241
11	1	19.484655	18.767239	8.035476
12	1	6.599615	4.794509	31.795038
13	1	22.349364	11.938217	24.179189
14	1	4.165192	6.620895	5.410539
15	1	3.421476	30.674940	25.063496
16	1	26.001174	19.610195	24.083543
17	1	7.383462	26.535882	30.423352
18	1	15.545347	29.582444	6.351278
19	1	27.898928	18.332922	12.938160
20	1	2.978143	24.698631	8.593881
21	1	31.707246	15.305172	12.522208
22	1	23.614244	28.612138	13.471923
23	1	8.844489	29.350092	17.442021
24	1	20.581021	31.527874	18.504040
25	1	16.637354	29.354278	16.596693
26	1	23.225230	17.292273	28.142474
27	1	30.208494	28.607349	5.200309
28	1	24.388949	26.236847	14.223005
29	1	9.082319	29.009203	20.149511
30	1	17.985363	26.917282	16.293225
31	1	27.907908	2.998530	12.645582
32	1	25.701512	1.323010	31.276220
33	1	21.320835	3.768187	19.321284
34	1	26.168038	20.516518	3.505781
35	1	24.785397	13.018424	24.474976
36	1	5.885551	0.644859	1.404738
37	1	22.024084	18.883637	22.977379
38	1	18.166620	31.813220	1.112056
39	1	25.504685	17.549638	25.556007
40	1	23.657729	18.367702	17.704410
41	1	28.895332	0.586007	21.991078
42	1	17.267555	18.725295	6.746944
43	1	8.438658	26.575678	23.776647
44	1	24.268143	21.448643	14.885509
45	1	22.754304	16.149308	22.773326
46	1	16.244907	27.419258	4.863757
47	1	21.508472	19.215262	18.777323
48	1	16.961643	15.002495	16.473949
49	1	21.557575	9.547013	0.718605
50	1	25.106403	10.272942	2.893902
51	1	10.987065	28.158386	3.647653
52	1	1.377332	7.397119	19.424966
53	1	5.531445	8.378016	26.099305
54	1	5.894349	3.749499	9.633017
55	1	12.392742	16.379107	25.377491
56	1	26.275875	1.735463	20.667497
57	1	15.112427	14.360059	9.017062
58	1	18.772368	15.199978	23.597918
59	1	11.127513	22.367462	25.676282
60	1	21.068392	18.407530	2.201580
61	1	11.581065	17.616544	6.559495
62	1	9.151623	9.067252	15.065484
63	1	13.783826	28.237131	24.507416
64	1	5.145492	4.476205	19.382501
65	1	8.670238	13.244757	2.354061
66	1	24.595227	25.638331	8.756881
67	1	25.094134	6.505524	5.070298
68	1	30.047762	25.686574	8.441557
69	1	25.469442	31.145017	10.833294
70	1	19.060675	3.533392	11.344394
71	1	22.188631	25.469300	21.639645
72	1	4.612018	14.103341	1.194587
73	1	22.224873	2.369360	22.513375
74	1	2.287009	21.562899	14.365166
75	1	30.551816	2.860774	22.164670
76	1	24.001170	18.523602	6.743610
77	1	23.453775	8.454424	31.034131
78	1	23.077597	22.714835	16.931562
79	1	12.112933	24.430463	20.585326
80	1	1.046649	28.574479	15.428725
81	1	7.277555	19.558648	18.376839
82	1	0.792502	20.116140	30.322772
83	1	24.146884	11.265576	19.008245
84	1	10.560959	30.245449	10.988673
85	1	28.872372	30.596527	19.744408
86	1	13.029811	13.499547	2.983621
87	1	30.683064	6.944916	2.724858
88	1	23.384622	4.192150	1.727820
89	1	15.828568	17.662509	29.042630
90	1	14.421104	2.329342	4.631183
91	1	2.770593	3.251928	30.110108
92	1	0.802542	28.815869	20.046346
93	1	14.757234	15.674608	21.043221
94	1	7.929247	30.045138	11.037153
95	1	19.307824	14.643774	11.512604
96	1	1.252713	19.150635	11.080871
97	1	6.048305	18.598932	30.006618
98	1	10.034912	5.463445	9.995772
99	1	6.351579	29.827453	1.824827
100	1	19.471707	17.737010	13.058802
101	1	19.192281	11.829437	31.910395
102	1	21.307674	16.870331	31.955175
103	1	7.945639	19.005852	3.644045
104	1	7.083176	16.414549	26.138903
105	1	6.954601	25.060774	25.156966
106	1	20.017086	18.875660	21.432473
107	1	25.525763	4.119156	20.508080
108	1	22.540369	20.852912	13.189760
109	1	5.537814	23.453508	26.433322
110	1	4.830879	20.820619	12.001648
111	1	16.334329	3.388349	28.145611
112	1	13.500067	4.059904	24.801736
113	1	20.311056	1.583954	0.439640
114	1	20.009408	5.458266	30.401497
115	1	7.156383	11.848488	29.953470
116	1	10.616051	17.261106	23.637813
117	1	6.561221	7.892983	8.939347
118	1	20.830226	17.181590	27.172663
119	1	5.214751	29.424988	7.648122
120	1	30.267104	20.259491	7.223852
121	1	20.229803	8.704501	13.028149
122	1	23.316730	30.357547	3.511952
123	1	1.208209	15.633426	8.381816
124	1	2.959281	29.478140	8.480505
125	1	8.308213	16.212689	23.832998
126	1	1.037928	4.780172	31.472637
127	1	9.633453	4.551533	22.391610
128	1	0.646862	8.670144	3.203036
129	1	3.211078	0.451919	29.933067
130	1	23.578200	4.572262	18.788556
131	1	28.770914	5.291893	6.575379
132	1	19.526695	29.515234	19.572112
133	1	31.932190	4.582917	9.422854
134	1	3.639004	11.237456	10.810260
135	1	17.346414	5.162499	26.333181
136	1	2.155934	3.568019	15.321307
137	1	6.929273	15.781107	11.994632
138	1	12.094266	9.873951	31.630177
139	1	13.949796	0.727140	22.233896
140	1	26.794937	12.611034	9.409756
141	1	16.628674	4.649482	0.500406
142	1	31.991252	7.755280	15.162645
143	1	1.871528	26.507056	16.705868
144	1	27.458691	9.672936	2.964071
145	1	9.362267	24.160906	2.609729
146	1	6.650210	27.418559	2.871965
147	1	13.805461	18.277618	20.745333
148	1	6.218346	13.876541	9.937659
149	1	16.235841	6.102352	13.316444
150	1	16.727330	29.738161	27.110919
151	1	27.945512	7.587049	13.613219
152	1	7.460521	8.911653	13.251501
153	1	21.130659	11.055838	30.568971
154	1	29.034022	29.711795	21.994574
155	1	24.634385	15.561511	12.844467
156	1	6.513896	21.436837	16.647371
157	1	8.828001	26.187380	26.275625
158	1	21.120721	5.746658	3.031115
159	1	28.291835	12.849276	32.060960
160	1	27.885745	16.227511	2.727712
161	1	31.787370	18.656171	16.861512
162	1	31.569543	1.427800	4.468721
163	1	28.004520	21.148248	12.428094
164	1	10.353021	29.577406	15.351815
165	1	3.648031	23.201630	30.733306
166	1	4.245032	28.679850	2.039018
167	1	22.092071	9.887784	11.661393
168	1	19.188598	4.581127	18.000208
169	1	11.975142	17.900223	17.440710
170	1	6.355906	26.059617	16.552447
171	1	27.998488	29.773582	31.265978
172	1	14.340433	11.551326	11.853746
173	1	8.414495	15.256857	14.036019
174	1	3.103897	24.883787	3.229529
175	1	9.001738	5.892005	25.339914
176	1	27.073761	24.258657	23.081511
177	1	14.413057	15.366130	28.645420
178	1	21.939277	15.793469	29.740484
179	1	25.402496	11.301438	14.492968
180	1	21.812070	24.669157	4.970701
181	1	25.860059	7.695317	2.980465
182	1	16.318308	10.971174	6.429226
183	1	29.644434	25.218431	1.368731
184	1	23.114737	10.653216	29.100842
185	1	20.355210	26.605783	22.783218
186	1	4.258911	12.930894	3.339106
187	1	4.291262	16.451069	26.243302
188	1	5.858224	12.869388	24.578362
189	1	2.328121	27.286962	2.374832
190	1	9.334239	6.050441	27.848438
191	1	12.991953	7.613714	6.250274
192	1	26.839003	16.565379	20.140310
193	1	9.881828	10.284006	7.683311
194	1	17.599443	7.233832	16.249072
195	1	17.082713	14.564940	5.456099
196	1	31.259486	10.837272	4.192991
197	1	14.907008	30.843198	28.765701
198	1	26.719970	2.839788	29.502762
199	1	19.289975	9.153213	18.744704
200	1	24.451698	17.965256	23.056285
201	1	12.209803	15.614328	27.707171
202	1	16.307935	25.260772	29.475457
203	1	26.667191	31.892636	16.417277
204	1	17.992972	29.588060	9.697612
205	1	9.238922	0.379298	30.525526
206	1	16.335043	1.692603	8.692642
207	1	30.662344	0.575185	28.745551
208	1	17.577951	15.342254	9.491545
209	1	5.844231	11.934663	16.188030
210	1	21.481720	11.993763	15.531371
211	1	28.739105	25.965629	10.718897
212	1	23.752016	15.582907	3.759053
213	1	9.068197	17.706638	7.619834
214	1	14.102766	23.800862	3.516250
215	1	1.854862	26.749123	19.327008
216	1	10.564244	25.167833	17.684586
217	1	16.681858	22.270604	11.053589
218	1	17.795701	3.415057	9.323992
219	1	17.690774	11.010101	17.562690
220	1	6.517290	18.236275	25.049629
221	1	19.797464	21.917435	21.063491
222	1	17.040112	27.487286	30.734275
223	1	29.397095	8.217814	11.505983
224	1	29.536119	21.362623	3.053876
225	1	25.127467	25.943742	29.503140
226	1	7.177547	26.121519	9.588410
227	1	17.444317	31.663311	15.403938
228	1	6.993350	20.627725	31.598394
229	1	15.085718	3.067028	17.648085
230	1	1.653020	13.755002	12.227143
231	1	8.430951	30.618832	4.939888
232	1	31.897846	12.714963	2.476066
233	1	2.887108	0.628069	0.914196
234	1	6.513112	1.348444	16.274632
235	1	15.202434	3.043602	23.039818
236	1	13.379372	17.765624	8.202356
237	1	17.957412	31.541969	17.980171
238	1	2.917109	15.667154	24.015308
239	1	6.155874	7.811394	6.618563
240	1	1.498623	22.595936	18.675964
241	1	19.146639	21.920047	10.705898
242	1	18.769345	21.765494	27.846062
243	1	14.101808	9.332537	10.363301
244	1	2.446896	11.564238	22.285685
245	1	31.212025	1.301796	12.954503
246	1	7.931526	24.506566	7.635928
247	1	14.654532	15.087813	15.400165
248	1	10.525146	13.274194	11.658545
249	1	25.790650	23.611178	29.442751
250	1	24.893596	16.089688	21.446343
251	1	12.810968	10.826248	17.271921
252	1	14.845016	15.785048	12.901256
253	1	21.472298	9.687983	4.914360
254	1	10.713740	9.095554	17.345602
255	1	2.649240	5.082355	22.693392
256	1	12.852867	25.298551	5.464501
257	1	14.030179	25.659300	15.470273
258	1	20.984115	25.952245	31.204701
259	1	4.378829	27.954054	15.796628
260	1	6.139646	29.843505	24.539354
261	1	9.649581	29.747233	31.583022
262	1	10.460575	13.814966	28.138351
263	1	21.762340	21.271002	10.722465
264	1	10.066107	8.112949	2.991194
265	1	5.526988	24.621885	8.243889
266	1	2.039887	16.253838	30.561640
267	1	2.189528	22.895306	2.155023
268	1	29.808226	5.555120	22.360653
269	1	5.143484	12.006126	28.218003
270	1	5.625661	14.354841	17.265773
271	1	12.592676	20.448711	20.736937
272	1	16.794467	9.854283	15.326433
273	1	11.828773	5.209504	28.509323
274	1	9.781118	20.266062	26.920588
275	1	4.212715	0.962997	15.352052
276	1	25.992821	4.575909	13.736915
277	1	24.916299	25.269195	24.799046
278	1	2.387532	17.609733	17.214504
279	1	27.395642	29.697928	15.768819
280	1	7.748456	10.218137	11.115486
281	1	8.678591	12.018011	32.078783
282	1	26.570253	18.968288	21.567023
283	1	27.315778	14.980797	9.963559
284	1	18.331248	25.356831	23.305764
285	1	19.662542	7.023056	17.166034
286	1	2.286001	3.088301	1.093378
287	1	30.921791	1.735807	6.869013
288	1	29.489888	14.882680	11.178936
289	1	29.649577	2.664669	14.574830
290	1	6.986576	1.924503	22.503506
291	1	5.669312	2.326406	5.638614
292	1	6.302816	31.527913	6.346502
293	1	1.781131	2.511652	3.635218
294	1	29.854910	9.208821	2.830298
295	1	9.940668	12.743128	24.946584
296	1	23.235558	14.373296	31.860209
297	1	17.431801	14.434255	25.913568
298	1	18.900545	8.712577	26.962643
299	1	18.546077	7.620426	9.170025
300	1	13.251669	27.375051	1.046517
301	1	6.137003	2.109627	25.738356
302	1	4.929444	4.205671	26.485693
303	1	8.119177	15.295304	27.979147
304	1	7.939430	6.233244	6.095588
305	1	2.647581	15.994531	1.129920
306	1	3.989536	25.153699	15.817711
307	1	1.155063	23.981096	4.635664
308	1	10.863781	18.643208	31.540763
309	1	1.238886	11.893953	0.358862
310	1	3.069471	25.387769	23.495154
311	1	27.600510	11.301213	7.111514
312	1	2.266090	15.746346	13.526202
313	1	10.900086	30.625759	3.814974
314	1	17.555671	29.592261	31.933816
315	1	21.840255	11.407150	6.600855
316	1	13.653108	11.183467	6.600171
317	1	4.405562	31.360412	13.074446
318	1	14.655984	11.911610	18.835119
319	1	13.092663	19.212965	10.150605
320	1	23.189465	31.856067	18.607922
321	1	26.945936	21.571623	22.550641
322	1	29.210625	16.531819	19.350022
323	1	29.007291	4.510936	24.539897
324	1	12.826144	29.297093	28.694885
325	1	12.043522	1.650672	20.203162
326	1	1.295006	6.808925	9.708276
327	1	12.119511	8.970216	24.841071
328	1	28.591956	27.747669	8.578822
329	1	19.293711	14.915937	4.177437
330	1	29.147757	8.645761	17.953931
331	1	7.148887	23.153280	3.453505
332	1	4.672881	10.328850	3.153838
333	1	10.913548	17.868698	27.189335
334	1	1.845828	30.164109	21.764156
335	1	7.548789	28.696329	22.675039
336	1	29.008992	15.561412	6.516996
337	1	12.375146	2.649938	29.695076
338	1	20.634390	11.296863	22.294474
339	1	7.643425	29.262059	6.863118
340	1	25.861177	24.553895	10.760544
341	1	10.934450	14.121320	9.333142
342	1	24.381656	1.353994	10.080397
343	1	29.483011	0.623629	3.017068
344	1	17.489059	17.919762	9.340903
345	1	11.428894	20.578161	1.636835
346	1	7.436916	16.479244	30.211115
347	1	27.435501	20.118714	27.725646
348	1	28.332421	16.621143	14.961054
349	1	7.029799	2.883155	29.873748
350	1	16.895705	31.699152	12.742780
351	1	22.633714	7.882622	21.525423
352	1	1.805907	30.744564	31.261939
353	1	8.161582	16.049178	2.517290
354	1	22.499000	10.305296	26.443956
355	1	17.904347	2.299343	0.492642
356	1	20.913132	13.428715	13.493662
357	1	17.745558	8.638680	2.061601
358	1	21.635529	12.315983	1.270918
359	1	15.978198	29.777323	24.642056
360	1	2.842841	3.989209	27.635978
361	1	10.651559	26.554384	5.397078
362	1	25.435205	2.561749	27.195732
363	1	24.631203	9.850595	12.315665
364	1	17.333794	25.687125	25.586927
365	1	27.792701	25.197444	3.856047
366	1	28.797154	10.186428	4.998644
367	1	28.385642	19.595181	23.283246
368	1	27.595647	20.556640	1.285480
369	1	2.496178	1.986517	19.460070
370	1	27.658737	3.405624	19.068812
371	1	25.166332	24.432102	27.008333
372	1	6.461020	9.521359	15.537995
373	1	29.187104	0.659574	5.497541
374	1	25.630797	24.658535	0.403701
375	1	19.297055	16.338423	30.580896
376	1	27.971983	1.519109	27.580698
377	1	5.708529	18.751017	13.766112
378	1	7.276562	2.411794	11.347875
379	1	3.110633	0.431986	21.370529
380	1	11.835594	4.919060	30.942984
381	1	16.845275	27.201396	9.736573
382	1	5.677606	15.211215	7.882115
383	1	3.351088	28.759408	20.001536
384	1	20.601021	6.524475	22.183010
385	1	30.666774	24.210955	21.072538
386	1	25.649941	28.796486	11.727011
387	1	15.205114	5.198187	19.349355
388	1	22.581096	25.926046	24.064868
389	1	6.823183	30.353381	13.098990
390	1	29.332652	4.849159	9.039159
391	1	18.065337	23.187098	8.742886
392	1	21.283412	8.046761	26.169143
393	1	14.025468	25.676034	19.875969
394	1	26.395654	25.302854	15.176811
395	1	16.734604	1.289737	19.087233
396	1	21.101635	5.057145	11.597432
397	1	4.199298	27.304019	11.927068
398	1	6.474770	3.917066	16.002967
399	1	20.738895	4.605207	25.694960
400	1	21.125729	29.230892	12.749116
401	1	23.044262	11.733525	13.036144
402	1	29.901276	29.923279	12.357148
403	1	18.273821	12.559337	10.048566
404	1	13.707025	3.038472	15.551237
405	1	21.730762	28.408995	7.725870
406	1	16.037124	16.439611	1.770892
407	1	3.615259	13.852228	25.650277
408	1	17.372250	3.905285	13.125858
409	1	26.860387	11.146353	30.821138
410	1	9.463799	4.709065	32.012118
411	1	8.302465	17.588263	19.904303
412	1	4.508874	16.823108	12.596021
413	1	16.463794	2.790788	30.465774
414	1	10.608479	23.931667	4.862499
415	1	0.654331	15.442202	2.761888
416	1	20.963499	25.706781	11.123402
417	1	24.073786	11.878156	16.497296
418	1	7.841846	19.806030	8.644251
419	1	15.319022	7.515649	18.377563
420	1	22.820462	14.401421	24.819393
421	1	14.650420	25.127952	1.495545
422	1	9.695801	31.167369	26.699868
423	1	24.636106	14.478188	17.122037
424	1	31.353498	7.405770	17.467410
425	1	28.143141	28.403234	11.015411
426	1	23.898039	30.524230	25.694276
427	1	27.670705	12.234400	14.164150
428	1	22.959772	28.540754	26.803863
429	1	18.661819	13.132592	29.713879
430	1	30.539766	16.654023	1.644592
431	1	30.711635	19.476107	4.879225
432	1	31.756918	21.994619	8.321851
433	1	23.717048	31.908968	30.061521
434	1	21.695245	15.003502	10.351538
435	1	5.038139	13.025607	30.837015
436	1	29.388412	24.773065	24.389436
437	1	30.534133	12.370550	0.338377
438	1	15.242462	19.115111	8.497307
439	1	25.325536	9.366747	19.880060
440	1	11.633664	5.717387	21.282179
441	1	30.338509	9.642843	29.592154
442	1	24.949373	16.397778	6.048296
443	1	4.479535	25.884070	25.806450
444	1	31.076387	17.948920	26.314775
445	1	31.619459	19.640410	9.119238
446	1	13.613623	24.564650	7.875417
447	1	22.231664	19.351067	31.999993
448	1	19.687340	1.952166	22.291739
449	1	25.414997	23.234519	16.060783
450	1	5.126559	4.387083	12.030334
451	1	2.555412	19.624646	15.915725
452	1	23.522149	20.713443	19.181709
453	1	23.969817	19.690038	11.046282
454	1	12.351600	14.814524	30.082049
455	1	30.447147	2.582481	9.152955
456	1	12.743022	4.185934	19.427035
457	1	13.861870	8.338229	0.646938
458	1	8.329299	6.541220	3.456496
459	1	11.155665	17.912116	13.601625
460	1	31.983030	21.444243	10.833335
461	1	15.917040	31.753300	20.851501
462	1	11.839042	22.539698	3.427669
463	1	2.798103	24.597403	18.126545
464	1	29.537287	20.297305	16.934269
465	1	26.077102	27.253889	7.297792
466	1	12.758805	17.662934	30.066068
467	1	4.550111	29.717946	17.833877
468	1	2.727838	4.856579	25.161352
469	1	19.620881	19.426354	27.380520
470	1	15.348044	4.111382	9.538597
471	1	28.699599	7.430955	9.217630
472	1	27.097642	10.071462	18.274835
473	1	2.423993	5.764529	29.468158
474	1	27.427152	22.459948	7.792073
475	1	17.713447	11.055050	22.407584
476	1	29.566207	30.257496	9.783645
477	1	3.449067	12.120142	5.532103
478	1	20.511925	25.932688	28.546212
479	1	9.129223	21.274508	17.889423
480	1	17.383170	25.742700	19.252750
481	1	14.764586	10.578467	22.153840
482	1	13.144864	3.553662	2.896202
483	1	29.832861	16.807793	12.860669
484	1	24.354562	7.615312	7.207821
485	1	32.011361	28.435899	12.920757
486	1	16.835477	19.919692	18.456680
487	1	6.962223	21.453729	10.596216
488	1	4.998790	23.926864	24.038703
489	1	30.974611	23.164773	1.768520
490	1	28.479700	17.142505	10.723781
491	1	10.727170	12.580902	4.111249
492	1	2.588257	19.930108	28.410676
493	1	4.116369	26.551062	20.840306
494	1	23.340383	8.423866	19.091458
495	1	6.894774	30.832386	8.855738
496	1	5.227164	10.534572	30.822671
497	1	9.685332	2.576091	2.724158
498	1	12.488465	9.828816	12.395814
499	1	10.779604	22.262512	14.370467
500	1	11.996210	23.121540	12.662774
501	1	20.994076	31.848805	12.241989
502	1	4.187544	3.217929	21.504342
503	1	17.419312	16.494874	11.897087
504	1	11.348665	15.019713	5.098377
505	1	29.535120	15.907895	8.744064
506	1	0.324051	13.064085	7.753070
507	1	10.333182	27.364590	16.353562
508	1	2.056622	25.136485	29.955836
509	1	5.788464	18.094926	22.530011
510	1	20.094528	11.532606	17.612360
511	1	4.227203	23.138312	19.581103
512	1	19.538711	6.226758	6.690656
513	1	14.521265	6.666427	11.468732
514	1	16.547573	5.312757	17.342537
515	1	23.575141	19.753855	2.463246
516	1	12.145976	12.190133	13.346135
517	1	26.732962	22.315902	31.447494
518	1	5.445044	31.741588	26.277896
519	1	30.480712	8.406853	32.105062
520	1	20.809291	4.207139	23.360157
521	1	7.102929	20.514199	26.224787
522	1	27.867980	21.786191	18.291473
523	1	3.352660	9.294460	22.951607
524	1	15.397061	6.604563	31.126163
525	1	3.856560	9.744477	27.673714
526	1	23.227459	9.463426	6.843418
527	1	31.573084	26.509636	20.798344
528	1	23.929425	2.555422	29.516818
529	1	17.194748	3.683285	19.207643
530	1	28.783316	5.152250	2.648863
531	1	28.869570	28.027055	27.028431
532	1	2.326075	13.591582	1.873686
533	1	26.301544	9.151976	8.317916
534	1	3.185583	31.529565	27.416453
535	1	6.049863	23.381718	15.101350
536	1	26.938367	28.527061	23.057142
537	1	19.869999	7.559611	1.454641
538	1	23.545197	27.741429	16.049384
539	1	17.285718	10.039315	4.153944
540	1	31.832836	8.737432	25.662334
541	1	3.668052	28.113369	24.676926
542	1	29.476914	7.413202	15.640622
543	1	15.072638	20.344942	28.745809
544	1	24.182675	22.927306	31.235506
545	1	27.427643	19.375191	10.503114
546	1	2.733934	21.115417	-1.148064
547	1	2.687947	22.948657	23.001256
548	1	25.215516	18.649776	19.593211
549	1	21.025025	12.030189	28.251783
550	1	16.344296	24.801209	16.023856
551	1	8.558070	18.720021	30.676401
552	1	26.278402	21.094803	20.054371
553	1	5.645527	13.941617	21.470813
554	1	6.663019	7.960114	17.813336
555	1	6.995672	2.432543	3.150649
556	1	29.728018	19.631533	28.024084
557	1	6.304355	9.015126	23.920592
558	1	2.696199	8.556578	25.699495
559	1	10.039505	31.511369	17.080988
560	1	20.363783	14.424104	19.900417
561	1	25.652669	31.049601	3.976861
562	1	4.923313	30.805606	20.007193
563	1	1.900236	26.601676	4.895579
564	1	27.451584	28.996130	6.318173
565	1	13.434378	15.964892	2.100694
566	1	9.176394	26.647298	2.627899
567	1	31.033188	13.820253	4.422629
568	1	12.235031	30.251102	13.272361
569	1	5.765071	27.821161	32.047191
570	1	24.968973	10.067887	27.261564
571	1	30.921495	21.538018	29.486067
572	1	29.376829	17.623773	17.020139
573	1	22.623964	15.115086	20.417601
574	1	10.669522	0.987502	28.616877
575	1	29.505348	26.277957	16.878323
576	1	22.631640	20.320538	16.648115
577	1	13.063015	20.128668	7.126464
578	1	17.452433	25.455800	8.100676
579	1	27.994043	2.943200	10.116402
580	1	2.908828	31.496082	11.034786
581	1	21.613670	18.713474	11.793301
582	1	15.441621	1.220321	6.496093
583	1	25.163236	23.347730	8.493491
584	1	27.600559	21.067080	25.181223
585	1	1.290439	2.895849	7.905931
586	1	0.841852	5.250977	11.696769
587	1	29.597367	27.278639	12.845448
588	1	6.254084	6.578912	12.639116
589	1	14.172952	2.366402	31.572169
590	1	4.730637	21.000143	14.555925
591	1	31.153028	3.225760	32.090811
592	1	20.067062	10.700287	26.217252
593	1	30.634743	5.721282	4.936470
594	1	21.879991	0.695631	9.946242
595	1	0.960245	3.214968	26.182309
596	1	3.784578	11.673078	0.906057
597	1	3.823185	14.834299	9.209855
598	1	26.234089	25.690641	19.497408
599	1	7.372436	30.171866	27.065877
600	1	23.018817	21.821781	1.442666
601	1	17.977084	6.454618	22.224711
602	1	4.262732	16.182986	21.787083
603	1	20.008358	3.077060	16.062261
604	1	2.467440	8.991041	10.240089
605	1	27.374996	15.631126	12.540901
606	1	14.771164	13.475339	30.613945
607	1	10.258860	4.167913	26.660888
608	1	26.441188	18.973957	5.724166
609	1	9.677500	9.624168	0.871343
610	1	25.572593	8.809927	14.329863
611	1	6.353122	31.995126	11.018064
612	1	23.315552	17.445992	1.716470
613	1	22.368927	12.608106	20.646419
614	1	21.661118	29.040846	15.261951
615	1	13.196022	16.635745	19.066391
616	1	11.953239	31.486985	21.996073
617	1	30.141866	12.967001	24.817971
618	1	23.861048	11.196625	4.951963
619	1	17.795961	22.722266	15.274535
620	1	22.320030	6.440332	8.417314
621	1	4.589008	31.706718	8.907784
622	1	20.341380	4.016885	13.670233
623	1	21.483145	15.397640	5.202185
624	1	5.958288	6.412079	2.004536
625	1	2.563165	17.525898	5.954426
626	1	26.230961	13.498951	27.343370
627	1	8.163616	22.564597	1.067443
628	1	23.724092	25.533138	4.058947
629	1	24.201345	19.966721	4.730181
630	1	31.213805	11.751948	9.616507
631	1	30.918902	16.063175	15.294827
632	1	28.691222	8.713297	6.981489
633	1	21.200024	21.106979	28.516477
634	1	17.759773	10.358564	8.434367
635	1	12.187048	15.185709	20.789057
636	1	20.485796	15.147976	25.442130
637	1	14.967083	9.199238	7.766680
638	1	6.997698	28.368604	9.198528
639	1	18.055372	6.086068	2.589705
640	1	24.568562	16.977931	8.609986
641	1	6.450464	0.549192	30.575243
642	1	10.527979	8.202767	13.020219
643	1	8.780069	31.531784	7.273647
644	1	8.119101	11.739791	20.535367
645	1	14.260105	11.660524	26.341562
646	1	22.518582	21.688955	23.327388
647	1	14.251402	22.556497	11.858362
648	1	2.103558	18.362585	26.595109
649	1	5.723001	16.486520	28.320342
650	1	27.079625	6.012934	0.535770
651	1	23.740164	8.656308	4.348782
652	1	4.424829	16.296388	17.308141
653	1	21.969304	29.247343	17.828084
654	1	22.328861	19.340790	27.117839
655	1	16.386212	21.347986	24.596354
656	1	4.570460	23.771712	1.397454
657	1	25.989805	17.295796	14.151136
658	1	16.631427	14.144108	14.095959
659	1	1.616245	11.811877	16.392691
660	1	26.648723	4.405142	5.581210
661	1	31.039394	14.297479	22.734988
662	1	3.182087	30.672030	6.329041
663	1	16.228802	16.686358	26.781888
664	1	18.132429	26.482854	5.986706
665	1	1.596764	20.342086	1.098001
666	1	3.861979	13.414371	23.149084
667	1	2.238143	1.430681	5.906781
668	1	9.664345	30.400209	22.527100
669	1	11.402855	22.381906	19.313219
670	1	9.836976	13.323642	14.000078
671	1	17.108668	29.753014	29.543673
672	1	29.327637	12.407718	16.046854
673	1	26.825500	0.760166	9.343062
674	1	27.769493	5.787535	20.338362
675	1	21.781674	23.683020	32.101112
676	1	14.037555	28.394647	12.653832
677	1	5.358228	30.979405	28.822159
678	1	15.001640	18.824879	30.872550
679	1	26.657636	7.582948	18.320900
680	1	14.644922	17.635288	25.051163
681	1	8.866595	8.347281	19.198450
682	1	2.878288	29.193418	4.155324
683	1	30.442447	5.071725	26.708679
684	1	3.533629	17.095033	15.046490
685	1	17.291558	29.798660	22.342314
686	1	8.777234	0.334270	12.536585
687	1	31.956764	1.030377	18.481207
688	1	21.291233	23.249466	2.865598
689	1	18.521378	12.558575	12.561295
690	1	13.245249	0.759310	14.569533
691	1	30.710416	6.420470	10.574107
692	1	24.126502	22.062530	12.086683
693	1	31.470629	13.432828	17.238412
694	1	15.306966	31.837207	26.255045
695	1	10.793434	22.776930	16.787079
696	1	5.792688	30.671043	15.567499
697	1	0.361077	17.717483	12.777192
698	1	22.849461	30.101004	23.312278
699	1	9.224816	29.719903	8.863291
700	1	6.582557	20.142813	23.672373
701	1	27.613147	30.722792	11.613376
702	1	12.380330	17.141375	4.043765
703	1	21.448381	4.183347	6.986734
704	1	30.023087	17.701613	23.612950
705	1	16.764370	10.935991	11.228775
706	1	22.777736	30.962690	14.018237
707	1	25.253139	27.083178	27.044209
708	1	3.261388	29.579705	29.245177
709	1	1.197313	19.279589	21.365595
710	1	5.859648	14.286850	26.782786
711	1	3.886831	24.331575	28.149158
712	1	20.034257	30.920396	14.385148
713	1	3.937493	2.458043	8.152518
714	1	0.510649	21.684429	24.365930
715	1	1.609305	23.149942	9.777390
716	1	5.305291	28.174122	29.638457
717	1	23.697030	25.478559	19.802858
718	1	5.510805	6.126068	10.180297
719	1	21.707379	20.697094	3.747776
720	1	6.751398	21.120790	5.049172
721	1	18.262669	24.441582	27.827434
722	1	9.935905	15.385986	7.180391
723	1	4.944801	16.703496	5.910195
724	1	18.469861	21.357921	17.210288
725	1	2.542920	7.944858	14.604264
726	1	21.239745	24.322377	15.847007
727	1	7.893679	31.257909	0.595603
728	1	14.250254	29.484500	26.583883
729	1	31.160081	30.523113	19.111333
730	1	30.199310	9.042032	13.810048
731	1	28.840459	18.069190	21.285882
732	1	1.524881	15.524723	15.933847
733	1	24.735191	2.872523	22.564267
734	1	6.722521	27.833141	11.903590
735	1	22.257496	10.348227	17.236678
736	1	26.605801	1.147914	11.934572
737	1	26.778214	8.301195	10.712086
738	1	11.941076	22.140044	8.328606
739	1	26.001926	10.648802	10.393806
740	1	16.942911	2.751476	4.712103
741	1	11.763525	16.344117	32.024205
742	1	25.047103	5.275368	23.009394
743	1	31.395152	29.047868	26.683542
744	1	4.909396	5.743438	21.529978
745	1	7.441324	16.005398	6.588492
746	1	19.912573	17.087648	15.750566
747	1	27.908808	13.913876	19.729705
748	1	15.525823	20.867608	6.610847
749	1	8.505792	22.710146	6.013970
750	1	10.118543	11.813323	22.423346
751	1	12.002712	29.388840	31.396943
752	1	16.440735	7.541503	3.962777
753	1	27.193940	26.235653	1.611863
754	1	11.035100	4.200923	17.257776
755	1	28.882012	0.477197	8.267046
756	1	21.726770	27.891151	10.678052
757	1	0.549597	3.703891	5.396920
758	1	18.729250	12.694139	27.155166
759	1	6.020200	22.863576	31.488728
760	1	12.174347	24.820181	24.515899
761	1	2.635870	20.618212	23.203146
762	1	3.666535	18.120808	1.518698
763	1	28.249832	26.936980	14.943624
764	1	10.119521	27.323414	13.724796
765	1	30.204454	11.469954	13.847448
766	1	27.198442	13.824196	2.179515
767	1	11.673625	29.287631	20.950794
768	1	12.598949	30.816391	16.128108
769	1	15.399137	21.284137	31.276175
770	1	10.959847	4.744196	24.273115
771	1	14.687441	26.509727	31.126870
772	1	28.385714	7.685167	1.559090
773	1	31.243628	0.288618	8.872450
774	1	6.609172	22.076224	7.939096
775	1	31.436782	22.126445	5.822489
776	1	29.850527	2.893218	2.199496
777	1	25.176260	12.106161	29.277989
778	1	8.452230	23.547467	14.276999
779	1	17.688272	29.560001	14.146907
780	1	12.583836	25.159077	31.951185
781	1	21.257426	14.770310	15.637741
782	1	19.066698	-0.370905	23.548168
783	1	1.243605	3.377350	17.646907
784	1	17.663239	3.764133	2.653141
785	1	15.759876	4.487271	15.239859
786	1	10.078342	27.883127	22.436351
787	1	10.955639	26.946727	24.779212
788	1	26.336403	27.091237	9.933131
789	1	12.990904	13.077819	15.816210
790	1	17.123035	17.256988	31.311377
791	1	17.253464	8.719612	17.631106
792	1	26.538630	11.549004	1.507739
793	1	5.596522	25.054071	3.755359
794	1	23.127254	27.979585	3.931200
795	1	21.514712	28.050109	24.718835
796	1	24.412432	26.642515	2.031486
797	1	23.687544	8.624268	1.666594
798	1	14.412994	32.028391	12.304878
799	1	1.636729	18.095047	8.679039
800	1	12.908629	21.686287	17.341807
801	1	27.394461	15.766774	26.882280
802	1	23.518594	21.344001	8.893535
803	1	23.731906	31.877974	5.758762
804	1	19.967915	17.266646	4.230061
805	1	9.027892	18.322994	25.342427
806	1	31.792500	27.692191	1.234059
807	1	0.326735	5.239557	21.441811
808	1	2.872104	12.027472	13.364155
809	1	28.432458	14.356929	4.389648
810	1	15.301432	24.987460	5.498171
811	1	1.227443	8.180179	7.386317
812	1	26.417306	1.151773	23.166717
813	1	27.922066	30.894113	23.954660
814	1	13.145533	4.214046	8.185587
815	1	20.423980	16.364958	21.442732
816	1	30.023138	22.299551	12.055288
817	1	14.140224	7.479937	25.001842
818	1	8.620579	3.363095	9.300315
819	1	10.204559	13.576489	20.606569
820	1	6.490119	9.595686	19.836276
821	1	9.960732	20.252867	13.310131
822	1	16.306770	11.679061	13.598975
823	1	27.410220	16.676960	5.180886
824	1	28.856640	18.376968	6.244329
825	1	21.869896	31.347951	16.342331
826	1	10.485196	25.411620	22.333382
827	1	24.921474	15.497390	23.913706
828	1	31.906400	23.550951	26.136448
829	1	13.057635	11.163223	3.683783
830	1	25.330139	30.650358	23.722273
831	1	24.690960	29.151156	21.638002
832	1	15.543792	27.415224	20.727152
833	1	29.717444	1.108424	0.455997
834	1	25.415017	22.315248	1.780455
835	1	26.415544	14.002759	22.204798
836	1	13.305252	6.791395	19.693171
837	1	31.734240	1.687246	24.155440
838	1	30.922408	31.208108	31.018546
839	1	4.346265	0.178490	4.937853
840	1	15.790578	30.729184	1.792379
841	1	29.080689	26.151960	19.320055
842	1	17.079577	13.202477	18.571900
843	1	17.409810	28.254104	7.528386
844	1	6.691676	17.566088	8.635180
845	1	9.359132	12.886778	18.348847
846	1	30.669401	19.684983	22.291744
847	1	19.367017	18.814589	31.981040
848	1	8.701632	10.019892	28.403491
849	1	10.918046	18.749208	11.336698
850	1	27.327837	5.276880	29.980122
851	1	16.290889	9.701334	28.393709
852	1	9.315367	25.821326	28.839877
853	1	6.735040	2.808629	18.312653