ITEM: TIMESTEP
0
ITEM: NUMBER OF ATOMS
2000
ITEM: BOX BOUNDS pp pp pp
0.299875	32.130125
0.299875	32.130125
0.299875	32.130125
ITEM: ATOMS id type x y z
1	1	8.089906	21.750710	22.159939
2	1	25.703670	0.663522	28.740939
3	1	19.926488	11.645967	8.394080
4	1	16.146722	26.455497	11.916514
5	1	23.439496	19.816060	24.682388
6	1	3.807951	19.103751	21.345269
7	1	22.818983	23.680756	25.419478
8	1	9.609590	18.578428	18.012059
9	1	15.055764	16.992022	17.019073
10	1	21.818700	3.691536	31.134856
11	1	19.486000	18.772089	8.031384
12	1	6.565766	4.781632	31.781976
13	1	22.349728	11.935507	24.171824
14	1	4.098838	6.620432	5.484023
15	1	3.425499	30.674659	25.061452
16	1	26.003673	19.615848	24.083509
17	1	7.416150	26.559497	30.436633
18	1	15.532062	29.613617	6.324098
19	1	27.891662	18.347800	12.933111
20	1	2.984095	24.708619	8.582928
21	1	31.698119	15.318615	12.522672
22	1	23.614838	28.613103	13.475300
23	1	8.848882	29.352338	17.445310
24	1	20.576597	31.527645	18.504874
25	1	16.634584	29.357195	16.590052
26	1	23.230015	17.289294	28.135180
27	1	30.216862	28.607131	5.205246
28	1	24.393734	26.231431	14.218885
29	1	9.080144	29.007617	20.147642
30	1	17.983956	26.920408	16.289812
31	1	27.912691	2.996469	12.649782
32	1	25.704776	1.327609	31.278449
33	1	21.314299	3.765468	19.323700
34	1	26.162277	20.513573	3.490489
35	1	24.786593	13.014113	24.467572
36	1	5.839070	0.651035	1.393380
37	1	22.031349	18.890101	22.977099
38	1	18.119397	31.823980	1.131924
39	1	25.495362	17.561674	25.557005
40	1	23.658804	18.367911	17.703639
41	1	28.893134	0.579451	21.984370
42	1	17.271772	18.727071	6.747844
43	1	8.436339	26.578603	23.773081
44	1	24.248631	21.446390	14.884411
45	1	22.756500	16.144618	22.768200
46	1	16.247071	27.412005	4.858748
47	1	21.509114	19.217828	18.779092
48	1	16.957703	14.998281	16.481441
49	1	21.545213	9.549188	0.711326
50	1	25.088001	10.286403	2.883393
51	1	10.973206	28.143881	3.664308
52	1	1.372832	7.392368	19.422357
53	1	5.538885	8.368607	26.085143
54	1	5.908147	3.734776	9.665067
55	1	12.410426	16.374249	25.361532
56	1	26.271472	1.731322	20.665638
57	1	15.124904	14.389779	9.029083
58	1	18.782055	15.192873	23.595641
59	1	11.132006	22.399614	25.722860
60	1	21.072098	18.402683	2.195754
61	1	11.563820	17.624985	6.565373
62	1	9.143642	9.076251	15.073841
63	1	13.787272	28.229883	24.495881
64	1	5.140651	4.475316	19.373936
65	1	8.677693	13.215437	2.360232
66	1	24.602889	25.638542	8.756621
67	1	25.085544	6.513828	5.064072
68	1	30.065137	25.701481	8.418699
69	1	25.480343	31.134969	10.838688
70	1	19.062776	3.531129	11.342500
71	1	22.186653	25.467928	21.635285
72	1	4.598937	14.101483	1.222063
73	1	22.217154	2.365520	22.517009
74	1	2.284419	21.574825	14.361181
75	1	30.550544	2.858732	22.159133
76	1	24.003253	18.528417	6.740922
77	1	23.441680	8.467708	31.021317
78	1	23.073135	22.716037	16.929924
79	1	12.112544	24.431799	20.579173
80	1	1.044330	28.565218	15.427496
81	1	7.281909	19.555618	18.382752
82	1	0.805041	20.114305	30.320983
83	1	24.146765	11.260852	19.007482
84	1	10.565334	30.247490	10.983756
85	1	28.869927	30.590905	19.739628
86	1	13.038344	13.466653	2.987513
87	1	30.662350	6.959564	2.712138
88	1	23.386534	4.207482	1.712906
89	1	15.829590	17.633360	29.044370
90	1	14.432633	2.246024	4.551408
91	1	2.743691	3.244079	30.094665
92	1	0.800361	28.811743	20.045040
93	1	14.754793	15.668191	21.040021
94	1	7.932414	30.044291	11.036653
95	1	19.314698	14.646375	11.515857
96	1	1.246688	19.164719	11.077245
97	1	6.064759	18.592789	30.017096
98	1	10.044336	5.487313	10.033426
99	1	6.363095	29.793711	1.705702
100	1	19.471468	17.739118	13.059527
101	1	19.190908	11.825575	31.910734
102	1	21.309567	16.863302	31.950216
103	1	7.962376	18.995548	3.652844
104	1	7.079786	16.428678	26.143160
105	1	6.961233	25.063611	25.162008
106	1	20.020200	18.868564	21.433905
107	1	25.521352	4.115644	20.505627
108	1	22.537024	20.849735	13.185766
109	1	5.542036	23.454052	26.437235
110	1	4.826827	20.835728	12.002573
111	1	16.328610	3.349042	28.182599
112	1	13.461818	4.045852	24.840916
113	1	20.329038	1.577602	0.443331
114	1	20.018718	5.440861	30.370812
115	1	7.161199	11.850697	30.021889
116	1	10.623346	17.270053	23.633517
117	1	6.609672	7.791642	8.915545
118	1	20.832670	17.174463	27.172726
119	1	5.232934	29.425839	7.635339
120	1	30.267570	20.266736	7.219323
121	1	20.230569	8.702405	13.030726
122	1	23.343539	30.356288	3.520668
123	1	1.201427	15.642778	8.387298
124	1	2.977934	29.488526	8.465792
125	1	8.311680	16.220636	23.840787
126	1	1.003936	4.772420	31.457991
127	1	9.615967	4.552333	22.382391
128	1	0.602819	8.675600	3.204158
129	1	3.185656	0.451346	29.925287
130	1	23.575201	4.568896	18.788970
131	1	28.756267	5.307686	6.586003
132	1	19.522126	29.516904	19.571927
133	1	31.928662	4.585481	9.421649
134	1	3.659568	11.228478	10.752365
135	1	17.310690	5.151556	26.349998
136	1	2.155994	3.571482	15.318898
137	1	6.923620	15.798564	12.004021
138	1	12.082920	9.852364	31.634112
139	1	13.947829	0.721381	22.252946
140	1	26.792308	12.616873	9.411845
141	1	16.602416	4.629336	0.545311
142	1	31.993156	7.762618	15.159725
143	1	1.866408	26.494947	16.711053
144	1	27.433695	9.681078	2.954127
145	1	9.373102	24.168973	2.598380
146	1	6.658877	27.420802	2.869850
147	1	13.812246	18.281314	20.732505
148	1	6.208547	13.897974	9.959968
149	1	16.240759	6.099850	13.302534
150	1	16.718156	29.727781	27.116371
151	1	27.942395	7.593608	13.612848
152	1	7.458720	8.921171	13.263283
153	1	21.120692	11.055728	30.559928
154	1	29.030197	29.705324	21.989934
155	1	24.633530	15.565758	12.842653
156	1	6.522803	21.438116	16.649532
157	1	8.824888	26.210971	26.278354
158	1	21.131872	5.744035	3.019460
159	1	28.284235	12.855112	32.050870
160	1	27.884440	16.233642	2.723161
161	1	31.759973	18.642319	16.878923
162	1	31.557277	1.444858	4.458874
163	1	28.005550	21.165184	12.435029
164	1	10.353577	29.581111	15.349124
165	1	3.670474	23.199815	30.723858
166	1	4.259387	28.675555	2.031095
167	1	22.090615	9.887180	11.662426
168	1	19.184232	4.580161	18.004486
169	1	11.977738	17.900562	17.444418
170	1	6.356188	26.060381	16.548096
171	1	28.010915	29.782850	31.266269
172	1	14.338274	11.557304	11.853059
173	1	8.400336	15.271679	14.056006
174	1	3.118793	24.886421	3.224697
175	1	8.987831	5.884211	25.310272
176	1	27.078362	24.259790	23.076206
177	1	14.389876	15.332252	28.673953
178	1	21.937546	15.793175	29.733965
179	1	25.405837	11.304930	14.490484
180	1	21.814257	24.672482	4.966952
181	1	25.837202	7.712564	2.970417
182	1	16.325259	10.984499	6.436013
183	1	29.650772	25.217895	1.367587
184	1	23.108406	10.656970	29.093343
185	1	20.353704	26.602816	22.778985
186	1	4.241180	12.918947	3.382045
187	1	4.292586	16.451963	26.250889
188	1	5.868493	12.877315	24.593265
189	1	2.342694	27.289764	2.373154
190	1	9.334925	6.026884	27.819808
191	1	12.959870	7.514827	6.224965
192	1	26.835919	16.567185	20.136045
193	1	9.964253	10.310888	7.766723
194	1	17.607517	7.234963	16.263345
195	1	17.092404	14.565632	5.459036
196	1	31.209264	10.864948	4.202070
197	1	14.878249	30.795030	28.763356
198	1	26.720643	2.840561	29.494051
199	1	19.284009	9.150483	18.747195
200	1	24.453430	17.965370	23.054215
201	1	12.206866	15.593768	27.704399
202	1	16.334706	25.238037	29.464529
203	1	26.667859	31.886035	16.414405
204	1	17.996236	29.588022	9.694074
205	1	9.295690	0.524159	30.652689
206	1	16.339971	1.689944	8.669901
207	1	30.649101	0.576574	28.726572
208	1	17.586464	15.350344	9.498047
209	1	5.832765	11.938725	16.197322
210	1	21.481466	11.994201	15.533837
211	1	28.757176	25.975967	10.702625
212	1	23.748037	15.588181	3.753277
213	1	9.066950	17.705758	7.625801
214	1	14.104546	23.801128	3.507191
215	1	1.856508	26.747156	19.331121
216	1	10.566103	25.170181	17.680068
217	1	16.681895	22.277915	11.048104
218	1	17.806145	3.403628	9.317546
219	1	17.689553	11.009047	17.567578
220	1	6.522097	18.245166	25.055352
221	1	19.798531	21.918356	21.062792
222	1	17.036739	27.469614	30.719745
223	1	29.393878	8.224813	11.504527
224	1	29.553811	21.366835	3.049853
225	1	25.137918	25.956878	29.510390
226	1	7.182155	26.124391	9.586877
227	1	17.444160	31.665965	15.397936
228	1	7.005122	20.614907	31.613722
229	1	15.080100	3.067040	17.656748
230	1	1.639692	13.774064	12.260148
231	1	8.460677	30.680198	4.959466
232	1	31.883653	12.717841	2.477353
233	1	2.877340	0.634147	0.911112
234	1	6.503487	1.352567	16.277245
235	1	15.180902	3.039792	23.053729
236	1	13.363056	17.795041	8.215892
237	1	17.954546	31.544626	17.977870
238	1	2.919904	15.666682	24.020225
239	1	5.961994	8.011393	6.741515
240	1	1.511296	22.594487	18.681640
241	1	19.144806	21.922166	10.701764
242	1	18.786461	21.760197	27.839350
243	1	14.118649	9.343667	10.374337
244	1	2.450161	11.563182	22.290200
245	1	31.209439	1.308160	12.960235
246	1	7.937469	24.506853	7.635193
247	1	14.652338	15.085813	15.403359
248	1	10.542544	13.269209	11.663886
249	1	25.790975	23.622417	29.440538
250	1	24.897427	16.086475	21.447556
251	1	12.806586	10.828115	17.270193
252	1	14.845881	15.791151	12.905451
253	1	21.465790	9.686672	4.912784
254	1	10.714191	9.103182	17.351756
255	1	2.647302	5.077019	22.691021
256	1	12.854930	25.309334	5.452048
257	1	14.032501	25.667435	15.465654
258	1	20.990125	25.957049	31.202461
259	1	4.382781	27.954184	15.794351
260	1	6.142549	29.844061	24.536862
261	1	9.570354	29.783955	31.600014
262	1	10.434438	13.794893	28.083929
263	1	21.760181	21.273341	10.719038
264	1	10.325150	8.098406	3.129535
265	1	5.533745	24.628054	8.239972
266	1	2.055514	16.249095	30.569025
267	1	2.209981	22.892841	2.153833
268	1	29.805499	5.551293	22.358489
269	1	5.149873	12.001428	28.239548
270	1	5.611052	14.362494	17.269576
271	1	12.595897	20.450091	20.734735
272	1	16.794318	9.853411	15.333572
273	1	11.844594	5.196235	28.496225
274	1	9.785768	20.267100	26.926319
275	1	4.206435	0.958240	15.348707
276	1	25.993419	4.574419	13.741685
277	1	24.914114	25.269631	24.791402
278	1	2.380790	17.646079	17.224356
279	1	27.400114	29.689592	15.764016
280	1	7.752988	10.228116	11.106551
281	1	8.653681	11.828553	32.194086
282	1	26.566477	18.965707	21.567625
283	1	27.311886	14.991067	9.960596
284	1	18.331203	25.349153	23.299542
285	1	19.666403	7.022562	17.171568
286	1	2.235346	3.084084	1.081944
287	1	30.880739	1.752686	6.865780
288	1	29.483362	14.891350	11.179625
289	1	29.647147	2.667924	14.589055
290	1	6.986039	1.921138	22.498617
291	1	5.571404	2.392232	5.724507
292	1	6.300964	31.530670	6.343374
293	1	1.755529	2.537479	3.643587
294	1	29.822100	9.222870	2.816811
295	1	9.938171	12.752517	24.968440
296	1	23.226976	14.385643	31.853070
297	1	17.432570	14.427663	25.907174
298	1	18.889949	8.702828	26.961994
299	1	18.541934	7.613880	9.157798
300	1	13.183364	27.302780	0.927029
301	1	6.134525	2.103522	25.739063
302	1	4.933737	4.209740	26.484204
303	1	8.110486	15.289356	27.966753
304	1	7.778946	6.340143	6.243270
305	1	2.644222	15.995892	1.143916
306	1	3.985764	25.154803	15.820249
307	1	1.172964	23.986284	4.632303
308	1	10.873106	18.606602	31.534126
309	1	1.235234	11.889788	0.368790
310	1	3.079793	25.384599	23.496907
311	1	27.587163	11.306866	7.111171
312	1	2.254892	15.782168	13.537211
313	1	10.980841	30.581040	3.826011
314	1	17.547130	29.579833	31.931602
315	1	21.831861	11.406448	6.600563
316	1	13.653813	11.202790	6.637848
317	1	4.408256	31.359490	13.071450
318	1	14.650147	11.909082	18.843333
319	1	13.092496	19.222319	10.163681
320	1	23.185903	31.853271	18.608204
321	1	26.947785	21.574976	22.547092
322	1	29.205432	16.527146	19.349532
323	1	29.005002	4.507894	24.535430
324	1	12.756852	29.216867	28.647844
325	1	12.037528	1.653106	20.195521
326	1	1.285266	6.805017	9.711986
327	1	12.112438	8.972785	24.835007
328	1	28.607123	27.752781	8.568981
329	1	19.293605	14.915565	4.174569
330	1	29.144993	8.643598	17.951683
331	1	7.160204	23.152753	3.449047
332	1	4.618120	10.309988	3.178041
333	1	10.950415	17.895630	27.198662
334	1	1.844184	30.161417	21.761326
335	1	7.546374	28.694498	22.664401
336	1	29.006382	15.565866	6.514980
337	1	12.413198	2.582999	29.769668
338	1	20.637282	11.290916	22.289256
339	1	7.650101	29.267403	6.861416
340	1	25.862852	24.554228	10.752340
341	1	10.952007	14.143026	9.343946
342	1	24.395432	1.343230	10.092474
343	1	29.480034	0.614871	3.016489
344	1	17.494812	17.930304	9.341008
345	1	11.425743	20.549248	1.645214
346	1	7.438585	16.461673	30.216573
347	1	27.437605	20.126071	27.725510
348	1	28.327334	16.636696	14.956021
349	1	7.030517	2.852949	29.875382
350	1	16.897082	31.702254	12.730629
351	1	22.631128	7.877759	21.525712
352	1	1.769437	30.748964	31.260621
353	1	8.165952	16.001351	2.517437
354	1	22.491107	10.305508	26.437582
355	1	17.945068	2.303448	0.489733
356	1	20.914809	13.428166	13.496331
357	1	17.730385	8.644298	2.065710
358	1	21.625600	12.318378	1.267794
359	1	15.980277	29.781930	24.645416
360	1	2.841655	3.982212	27.626099
361	1	10.655551	26.543695	5.407188
362	1	25.430983	2.559098	27.191673
363	1	24.630870	9.851316	12.316648
364	1	17.343555	25.693520	25.571649
365	1	27.804976	25.197576	3.846216
366	1	28.750435	10.195443	4.987544
367	1	28.386159	19.596329	23.283152
368	1	27.607647	20.563143	1.279885
369	1	2.492915	1.981814	19.455525
370	1	27.655101	3.403734	19.067800
371	1	25.178039	24.438142	26.999025
372	1	6.450797	9.528479	15.541450
373	1	29.185108	0.668729	5.487236
374	1	25.632921	24.665599	0.401292
375	1	19.295118	16.342289	30.573952
376	1	27.968547	1.518730	27.569574
377	1	5.703861	18.755961	13.771310
378	1	7.300913	2.410038	11.375241
379	1	3.109460	0.430358	21.368427
380	1	11.846068	4.824917	30.977487
381	1	16.840952	27.208829	9.725545
382	1	5.675087	15.211882	7.891721
383	1	3.349599	28.755024	20.000655
384	1	20.592272	6.523733	22.185514
385	1	30.675737	24.207743	21.090120
386	1	25.659737	28.786480	11.730232
387	1	15.202277	5.195717	19.351887
388	1	22.580343	25.924413	24.059967
389	1	6.827000	30.355390	13.099079
390	1	29.328109	4.860216	9.041692
391	1	18.065923	23.192575	8.739613
392	1	21.273126	8.045172	26.164233
393	1	14.028231	25.676607	19.871935
394	1	26.398994	25.297300	15.171326
395	1	16.725071	1.284663	19.088038
396	1	21.097973	5.059047	11.599460
397	1	4.200469	27.306930	11.923884
398	1	6.472128	3.924483	16.013902
399	1	20.741074	4.589308	25.698962
400	1	21.128074	29.230753	12.749200
401	1	23.044260	11.734058	13.037176
402	1	29.908449	29.912310	12.354149
403	1	18.270843	12.552547	10.052526
404	1	13.718855	3.036125	15.545208
405	1	21.734333	28.405456	7.726175
406	1	16.023312	16.424760	1.772223
407	1	3.619611	13.855016	25.658005
408	1	17.373172	3.904898	13.122423
409	1	26.854439	11.152788	30.811194
410	1	9.525534	4.642574	32.059445
411	1	8.304755	17.589741	19.907233
412	1	4.499183	16.840324	12.599962
413	1	16.435041	2.776681	30.529656
414	1	10.621266	23.919083	4.858996
415	1	0.647417	15.445941	2.767000
416	1	20.963595	25.709626	11.121592
417	1	24.079130	11.877868	16.496621
418	1	7.842383	19.809076	8.646616
419	1	15.316189	7.514721	18.384771
420	1	22.822584	14.396532	24.815056
421	1	14.648592	25.106454	1.482596
422	1	9.707882	31.171812	26.668898
423	1	24.636566	14.480005	17.120370
424	1	31.351592	7.405316	17.463090
425	1	28.154166	28.401955	11.010593
426	1	23.889496	30.524739	25.694469
427	1	27.673228	12.243777	14.160115
428	1	22.956099	28.539834	26.806516
429	1	18.659700	13.120058	29.710253
430	1	30.540275	16.658280	1.640836
431	1	30.715236	19.481731	4.875330
432	1	31.757490	22.001992	8.310233
433	1	23.718629	31.910557	30.063052
434	1	21.697968	15.003043	10.349953
435	1	5.029376	13.013451	30.857110
436	1	29.396447	24.777622	24.372885
437	1	30.527826	12.376650	0.336218
438	1	15.242372	19.119713	8.492794
439	1	25.329800	9.365533	19.879074
440	1	11.629582	5.713238	21.285278
441	1	30.342522	9.645358	29.593296
442	1	24.945944	16.402639	6.043862
443	1	4.485068	25.879728	25.808080
444	1	31.078333	17.947993	26.317324
445	1	31.615811	19.651816	9.116207
446	1	13.617815	24.571268	7.867824
447	1	22.234962	19.348484	31.992480
448	1	19.675940	1.945180	22.303116
449	1	25.405221	23.235862	16.050581
450	1	5.125960	4.381241	12.044642
451	1	2.618111	19.656267	15.927365
452	1	23.524036	20.713449	19.179945
453	1	23.970284	19.692400	11.042248
454	1	12.282670	14.761817	30.093922
455	1	30.431348	2.595517	9.153873
456	1	12.740082	4.185398	19.425975
457	1	13.877212	8.334240	0.615541
458	1	8.002146	8.012004	2.401527
459	1	11.155276	17.916636	13.604994
460	1	31.979035	21.463478	10.822794
461	1	15.914239	31.753056	20.862405
462	1	11.845805	22.530814	3.416454
463	1	2.805257	24.599320	18.135933
464	1	29.538535	20.307582	16.937851
465	1	26.088745	27.249952	7.296254
466	1	12.773103	17.611865	30.029689
467	1	4.547000	29.714730	17.831842
468	1	2.731516	4.855783	25.159662
469	1	19.629365	19.421232	27.378877
470	1	15.361652	4.110884	9.507940
471	1	28.690462	7.433443	9.211180
472	1	27.094149	10.071283	18.272815
473	1	2.417191	5.759262	29.458068
474	1	27.424623	22.467287	7.766310
475	1	17.693172	11.047383	22.419436
476	1	29.572270	30.266747	9.776194
477	1	3.424068	12.124249	5.564199
478	1	20.515633	25.934474	28.538647
479	1	9.132158	21.274832	17.885121
480	1	17.377099	25.743496	19.254790
481	1	14.759463	10.576565	22.162768
482	1	13.332177	3.268233	2.524311
483	1	29.825959	16.826214	12.855838
484	1	24.333764	7.613730	7.207223
485	1	32.019282	28.436079	12.913264
486	1	16.847757	19.916439	18.433104
487	1	6.963090	21.460487	10.598861
488	1	5.009464	23.923521	24.044159
489	1	30.986529	23.168574	1.763247
490	1	28.475191	17.154831	10.720437
491	1	10.731979	12.555965	4.140783
492	1	2.596945	19.924465	28.413626
493	1	4.115734	26.541393	20.836945
494	1	23.342900	8.422954	19.093295
495	1	6.902553	30.838561	8.857972
496	1	5.234114	10.519692	30.888981
497	1	9.492014	2.793405	2.788201
498	1	12.473620	9.850341	12.390770
499	1	10.788641	22.264646	14.367357
500	1	12.001750	23.132081	12.660431
501	1	20.999276	31.847635	12.244049
502	1	4.184503	3.214715	21.499389
503	1	17.424990	16.501316	11.894498
504	1	11.335758	15.006212	5.121789
505	1	29.530792	15.921219	8.742927
506	1	0.317108	13.082901	7.770719
507	1	10.335952	27.369309	16.354301
508	1	2.073155	25.136527	29.956071
509	1	5.796730	18.100465	22.534143
510	1	20.092872	11.536890	17.618188
511	1	4.234400	23.130443	19.585835
512	1	19.528053	6.219778	6.685988
513	1	14.540121	6.663293	11.436662
514	1	16.544284	5.311719	17.346321
515	1	23.570296	19.751519	2.456093
516	1	12.149063	12.197072	13.347215
517	1	26.740471	22.323694	31.447261
518	1	5.449565	31.739407	26.278754
519	1	30.470929	8.413709	32.101463
520	1	20.796901	4.203088	23.362973
521	1	7.110707	20.521195	26.238453
522	1	27.884610	21.786619	18.299513
523	1	3.352508	9.287961	22.954555
524	1	15.430764	6.587796	31.108317
525	1	3.857626	9.755883	27.640604
526	1	23.223772	9.468644	6.839671
527	1	31.576096	26.509234	20.810356
528	1	23.925347	2.555292	29.516225
529	1	17.190563	3.680208	19.212316
530	1	28.799599	5.148898	2.633406
531	1	28.865449	28.011663	27.021818
532	1	2.313885	13.590058	1.897931
533	1	26.289425	9.155449	8.317730
534	1	3.181360	31.522299	27.411465
535	1	6.048919	23.384577	15.103420
536	1	26.932951	28.523313	23.053953
537	1	19.862341	7.562240	1.452473
538	1	23.545518	27.739972	16.044838
539	1	17.275654	10.024100	4.163891
540	1	31.834121	8.738498	25.664562
541	1	3.680053	28.110194	24.680108
542	1	29.476815	7.416628	15.638265
543	1	15.066954	20.271648	28.744541
544	1	24.191378	22.925792	31.233936
545	1	27.424340	19.388242	10.500923
546	1	2.748237	21.112817	-1.151970
547	1	2.705564	22.944811	23.008284
548	1	25.214540	18.652185	19.589099
549	1	21.017216	12.024174	28.244877
550	1	16.341942	24.803126	16.019570
551	1	8.562975	18.700240	30.693205
552	1	26.275212	21.096318	20.050216
553	1	5.650608	13.947665	21.474816
554	1	6.659428	7.966150	17.811762
555	1	6.911971	2.499357	3.180543
556	1	29.728230	19.633782	28.025255
557	1	6.304305	9.017979	23.913633
558	1	2.700034	8.550197	25.689433
559	1	10.039951	31.514005	17.074306
560	1	20.369893	14.404737	19.891921
561	1	25.671434	31.055737	3.982945
562	1	4.918399	30.803787	20.006611
563	1	1.914356	26.615477	4.892898
564	1	27.487605	28.991848	6.325259
565	1	13.424660	15.942484	2.108638
566	1	9.164877	26.677295	2.635696
567	1	31.016838	13.824421	4.422018
568	1	12.237175	30.254432	13.264765
569	1	5.754290	27.807977	32.016952
570	1	24.962036	10.066015	27.255126
571	1	30.924752	21.537879	29.489378
572	1	29.366609	17.632774	17.015306
573	1	22.629051	15.109819	20.414545
574	1	10.709913	0.994793	28.673183
575	1	29.510864	26.259843	16.870458
576	1	22.626909	20.319845	16.653552
577	1	13.050156	20.139820	7.095650
578	1	17.450032	25.460125	8.092900
579	1	27.990955	2.942404	10.119868
580	1	2.912678	31.488972	11.029150
581	1	21.611246	18.715056	11.790685
582	1	15.444306	1.200335	6.468974
583	1	25.165989	23.350303	8.489253
584	1	27.605654	21.070900	25.181026
585	1	1.279709	2.882119	7.883626
586	1	0.843592	5.253767	11.695795
587	1	29.607525	27.251983	12.843043
588	1	6.257321	6.590229	12.641388
589	1	14.143252	2.517129	31.825619
590	1	4.730072	21.006570	14.560903
591	1	31.124203	3.221196	32.098777
592	1	20.058647	10.691718	26.213968
593	1	30.611832	5.734305	4.930425
594	1	21.888646	0.691289	9.955744
595	1	0.962850	3.207559	26.170868
596	1	3.759293	11.679947	0.928922
597	1	3.819831	14.855898	9.224092
598	1	26.235403	25.686280	19.504002
599	1	7.378662	30.178909	27.084305
600	1	23.025966	21.824824	1.441467
601	1	17.966714	6.443710	22.235060
602	1	4.265604	16.183678	21.793485
603	1	20.004373	3.076094	16.067981
604	1	2.473610	8.991103	10.217831
605	1	27.371832	15.643001	12.539525
606	1	14.756430	13.447285	30.622585
607	1	10.272387	4.166938	26.628280
608	1	26.442429	18.980054	5.715546
609	1	9.674479	9.480395	0.972123
610	1	25.575145	8.811622	14.329299
611	1	6.360135	32.001028	11.018229
612	1	23.314167	17.443182	1.710901
613	1	22.372307	12.601315	20.641830
614	1	21.660417	29.041830	15.263040
615	1	13.194101	16.631627	19.069951
616	1	11.948658	31.486589	21.974897
617	1	30.145164	12.967763	24.822955
618	1	23.847441	11.202396	4.947104
619	1	17.796892	22.727336	15.271311
620	1	22.323860	6.439870	8.419016
621	1	4.608866	31.705348	8.906184
622	1	20.339787	4.016852	13.673962
623	1	21.483007	15.399073	5.200529
624	1	5.921673	6.426394	1.994452
625	1	2.579198	17.532740	5.940435
626	1	26.228095	13.505921	27.336080
627	1	8.178246	22.550348	1.074744
628	1	23.730391	25.533616	4.060145
629	1	24.200939	19.971453	4.722854
630	1	31.202015	11.763341	9.621829
631	1	30.928838	16.115790	15.276912
632	1	28.660032	8.710860	6.972349
633	1	21.212942	21.103606	28.512943
634	1	17.748343	10.336286	8.434621
635	1	12.180704	15.182136	20.791876
636	1	20.492164	15.148490	25.431711
637	1	15.014549	9.261514	7.828789
638	1	7.003694	28.372171	9.196502
639	1	18.054717	6.085125	2.577647
640	1	24.569995	16.982979	8.608407
641	1	6.444842	0.546706	30.613477
642	1	10.525118	8.217620	13.034025
643	1	8.764342	31.554532	7.279770
644	1	8.114581	11.751314	20.542019
645	1	14.259338	11.643579	26.358947
646	1	22.522768	21.687079	23.327989
647	1	14.253332	22.561873	11.852198
648	1	2.112795	18.356070	26.597616
649	1	5.724192	16.483942	28.334047
650	1	27.078462	6.018275	0.503231
651	1	23.724061	8.661891	4.340053
652	1	4.407187	16.304549	17.313135
653	1	21.967559	29.248025	17.827994
654	1	22.334984	19.333253	27.113771
655	1	16.388157	21.337821	24.592034
656	1	4.589036	23.771395	1.387111
657	1	25.984233	17.303049	14.149320
658	1	16.630486	14.142047	14.108372
659	1	1.607548	11.802686	16.408431
660	1	26.632305	4.411398	5.566745
661	1	31.034566	14.303536	22.742511
662	1	3.236028	30.689863	6.316382
663	1	16.252458	16.679232	26.768960
664	1	18.138401	26.485663	5.984555
665	1	1.616667	20.334898	1.094325
666	1	3.868754	13.413906	23.156119
667	1	2.394542	1.432418	5.890451
668	1	9.664171	30.399303	22.516640
669	1	11.402454	22.385109	19.309198
670	1	9.838770	13.343495	14.002642
671	1	17.068066	29.747523	29.562093
672	1	29.326730	12.411945	16.043584
673	1	26.836606	0.750532	9.350035
674	1	27.767199	5.784810	20.336288
675	1	21.793240	23.687606	32.098689
676	1	14.039324	28.401980	12.645713
677	1	5.354756	30.976370	28.831479
678	1	15.011267	18.775174	30.896040
679	1	26.656052	7.580601	18.321965
680	1	14.670126	17.615486	25.018507
681	1	8.864481	8.352463	19.199398
682	1	2.911425	29.207975	4.147119
683	1	30.440207	5.078737	26.702846
684	1	3.529243	17.136395	15.051776
685	1	17.289172	29.799751	22.343405
686	1	8.781486	0.328519	12.540839
687	1	31.954818	1.025892	18.477324
688	1	21.293982	23.251770	2.860499
689	1	18.523847	12.558490	12.565768
690	1	13.244714	0.766597	14.554944
691	1	30.706975	6.427171	10.569972
692	1	24.109015	22.063828	12.071933
693	1	31.460950	13.375817	17.285751
694	1	15.294003	31.829262	26.271221
695	1	10.797599	22.781524	16.783916
696	1	5.791799	30.670608	15.567780
697	1	0.350458	17.734157	12.785939
698	1	22.842339	30.100330	23.313867
699	1	9.230589	29.726967	8.859817
700	1	6.604185	20.146452	23.683284
701	1	27.625669	30.718156	11.613222
702	1	12.374082	17.119512	4.054576
703	1	21.463423	4.178367	6.991905
704	1	30.024438	17.704683	23.614118
705	1	16.767827	10.932301	11.244880
706	1	22.780260	30.962679	14.020270
707	1	25.254312	27.088013	27.046407
708	1	3.251424	29.572324	29.238559
709	1	1.197327	19.275600	21.374077
710	1	5.858622	14.290652	26.794331
711	1	3.900244	24.327063	28.153701
712	1	20.035891	30.920056	14.385233
713	1	3.955828	2.466205	8.122241
714	1	0.525414	21.682583	24.384957
715	1	1.610355	23.163986	9.760195
716	1	5.328019	28.174674	29.612486
717	1	23.697627	25.476972	19.800137
718	1	5.519921	6.104086	10.198976
719	1	21.706268	20.700243	3.741925
720	1	6.760001	21.118145	5.052428
721	1	18.272435	24.436038	27.817036
722	1	9.924352	15.369180	7.197551
723	1	4.952651	16.690785	5.917873
724	1	18.475077	21.368161	17.207889
725	1	2.543357	7.955604	14.595255
726	1	21.234018	24.323869	15.847332
727	1	7.955476	31.382043	0.670190
728	1	14.247425	29.462024	26.581860
729	1	31.158297	30.517236	19.106346
730	1	30.198877	9.047335	13.809902
731	1	28.834434	18.065711	21.288519
732	1	1.538746	15.576155	15.933099
733	1	24.730968	2.870121	22.561305
734	1	6.727143	27.834205	11.904077
735	1	22.259648	10.350406	17.236094
736	1	26.614600	1.141931	11.940792
737	1	26.772481	8.305212	10.717116
738	1	11.942503	22.143684	8.327523
739	1	25.993183	10.653346	10.395185
740	1	16.981792	2.720032	4.706202
741	1	11.752995	16.308531	32.021452
742	1	25.041860	5.272306	23.005631
743	1	31.394155	29.041208	26.677276
744	1	4.903023	5.741788	21.521776
745	1	7.442087	15.999499	6.598163
746	1	19.916474	17.088044	15.750139
747	1	27.908462	13.915371	19.725937
748	1	15.518123	20.864700	6.598180
749	1	8.514642	22.703627	6.018618
750	1	10.114403	11.818525	22.433326
751	1	11.897503	29.193283	31.172810
752	1	16.420672	7.519257	3.956021
753	1	27.202220	26.240337	1.610981
754	1	11.030996	4.204391	17.259865
755	1	28.889563	0.489635	8.270947
756	1	21.732452	27.889056	10.679478
757	1	0.515066	3.718780	5.393749
758	1	18.718097	12.686592	27.153136
759	1	6.050053	22.862565	31.480895
760	1	12.178189	24.810850	24.506491
761	1	2.644027	20.614359	23.210961
762	1	3.687088	18.112993	1.514153
763	1	28.246600	26.941943	14.949846
764	1	10.121461	27.325961	13.724320
765	1	30.202717	11.480391	13.852752
766	1	27.190245	13.831951	2.171835
767	1	11.674062	29.285127	20.942032
768	1	12.601068	30.820832	16.116289
769	1	15.438874	21.239284	31.273048
770	1	10.950774	4.743340	24.242416
771	1	14.696675	26.451714	31.098204
772	1	28.363138	7.685892	1.550285
773	1	31.263444	0.313143	8.863463
774	1	6.611926	22.081082	7.942225
775	1	31.445117	22.129147	5.811991
776	1	29.845048	2.870474	2.220505
777	1	25.172985	12.110409	29.267750
778	1	8.454876	23.551824	14.276448
779	1	17.686351	29.565464	14.141201
780	1	12.606371	25.039974	31.943519
781	1	21.258989	14.771517	15.638209
782	1	19.062375	-0.383464	23.565948
783	1	1.242002	3.375503	17.641768
784	1	17.766684	3.760668	2.678341
785	1	15.763676	4.488264	15.240209
786	1	10.077396	27.881625	22.430275
787	1	10.950343	26.946045	24.771058
788	1	26.350428	27.088210	9.926941
789	1	12.985599	13.077542	15.815111
790	1	17.114498	17.226635	31.316992
791	1	17.246970	8.721310	17.638988
792	1	26.524826	11.558514	1.496846
793	1	5.614448	25.058192	3.751169
794	1	23.139079	27.978568	3.934335
795	1	21.512938	28.050021	24.717349
796	1	24.424895	26.644744	2.034993
797	1	23.677437	8.633949	1.655405
798	1	14.415233	32.039934	12.289431
799	1	1.632923	18.103107	8.682061
800	1	12.912843	21.690578	17.340748
801	1	27.392932	15.773385	26.874639
802	1	23.519091	21.348906	8.894709
803	1	23.759779	31.871799	5.772917
804	1	19.969294	17.266386	4.227727
805	1	9.035831	18.343968	25.343411
806	1	31.810701	27.696988	1.232550
807	1	0.324169	5.232482	21.440553
808	1	2.867585	12.030598	13.352277
809	1	28.421141	14.364536	4.385421
810	1	15.300471	24.989054	5.488509
811	1	1.267437	8.179308	7.412714
812	1	26.412763	1.147936	23.163933
813	1	27.917492	30.889982	23.949309
814	1	13.175732	4.231788	8.119038
815	1	20.429695	16.354549	21.422359
816	1	30.028205	22.317657	12.056241
817	1	14.118587	7.466279	25.015134
818	1	8.637889	3.355055	9.333684
819	1	10.195801	13.579012	20.612671
820	1	6.490071	9.600423	19.837492
821	1	9.952839	20.253816	13.319980
822	1	16.306666	11.678135	13.606038
823	1	27.408750	16.683521	5.177432
824	1	28.856730	18.382560	6.240469
825	1	21.868427	31.347244	16.343563
826	1	10.481609	25.409324	22.328501
827	1	24.921989	15.495436	23.912368
828	1	31.914944	23.548978	26.143297
829	1	13.080341	11.148013	3.724391
830	1	25.324597	30.647519	23.720717
831	1	24.685819	29.150889	21.637468
832	1	15.543550	27.416866	20.723501
833	1	29.716175	1.095881	0.452313
834	1	25.420260	22.321726	1.777516
835	1	26.412435	13.996871	22.204145
836	1	13.302208	6.790585	19.694331
837	1	31.728564	1.680442	24.144546
838	1	30.891964	31.191590	30.995428
839	1	4.434211	0.160249	4.878443
840	1	15.778262	30.709350	1.788689
841	1	29.077634	26.149520	19.311655
842	1	17.077797	13.196404	18.573560
843	1	17.406253	28.263321	7.520427
844	1	6.687152	17.573547	8.641760
845	1	9.353608	12.894095	18.350981
846	1	30.668321	19.688659	22.284298
847	1	19.373895	18.808654	31.979516
848	1	8.701352	10.023025	28.450290
849	1	10.915026	18.756742	11.344260
850	1	27.322806	5.284044	29.956432
851	1	16.273040	9.698729	28.383427
852	1	9.291031	25.853504	28.843788
853	1	6.738999	2.812582	18.313428