ITEM: TIMESTEP
0
ITEM: NUMBER OF ATOMS
2000
ITEM: BOX BOUNDS pp pp pp
0.299875	32.130125
0.299875	32.130125
0.299875	32.130125
ITEM: ATOMS id type x y z
1	1	8.079090	21.771363	22.160191
2	1	25.709098	0.662572	28.742065
3	1	19.934399	11.684255	8.363670
4	1	16.144231	26.449042	11.928036
5	1	23.434190	19.809665	24.687006
6	1	3.811427	19.139961	21.339032
7	1	22.813997	23.686458	25.428798
8	1	9.610460	18.570946	18.020175
9	1	15.059233	16.958770	17.023628
10	1	21.797513	3.695515	31.144295
11	1	19.489614	18.775103	8.044173
12	1	6.582430	4.748581	31.827126
13	1	22.356520	11.932259	24.170346
14	1	4.066575	6.534699	5.486684
15	1	3.427324	30.682427	25.084081
16	1	26.009162	19.600793	24.089866
17	1	7.365046	26.493470	30.377121
18	1	15.528692	29.561215	6.343593
19	1	27.919341	18.337523	12.935477
20	1	2.981695	24.708458	8.577749
21	1	31.707695	15.293086	12.545004
22	1	23.498831	28.659644	13.419127
23	1	8.861454	29.339637	17.455437
24	1	20.554894	31.560830	18.508882
25	1	16.627951	29.365680	16.597562
26	1	23.221291	17.284692	28.136116
27	1	30.329274	28.672068	5.175217
28	1	24.308754	26.358895	14.248467
29	1	9.088538	29.004187	20.153383
30	1	17.971250	26.913593	16.311812
31	1	27.891202	3.004161	12.642649
32	1	25.705201	1.324947	31.274701
33	1	21.309554	3.797338	19.337590
34	1	26.182799	20.547148	3.538361
35	1	24.792799	13.028491	24.484504
36	1	5.870081	0.641686	1.565409
37	1	22.027615	18.885776	22.983796
38	1	18.124779	31.818372	1.130884
39	1	25.507630	17.543131	25.544688
40	1	23.652815	18.377378	17.710373
41	1	28.892088	0.583754	21.986570
42	1	17.273772	18.723361	6.752289
43	1	8.432823	26.562651	23.753270
44	1	24.244251	21.461965	14.898696
45	1	22.754414	16.135111	22.763177
46	1	16.251131	27.407253	4.869544
47	1	21.515926	19.238441	18.787541
48	1	16.962680	14.942534	16.465221
49	1	21.546667	9.554373	0.703330
50	1	25.098537	10.281348	2.876746
51	1	10.976975	28.205003	3.648391
52	1	1.375031	7.402552	19.426461
53	1	5.528124	8.380778	26.112804
54	1	5.929971	3.706138	9.692134
55	1	12.388927	16.369493	25.375620
56	1	26.261564	1.732746	20.676050
57	1	15.125807	14.342245	9.027222
58	1	18.771454	15.180279	23.581677
59	1	11.132893	22.348762	25.655468
60	1	21.072911	18.396591	2.202186
61	1	11.593416	17.602012	6.568071
62	1	9.123912	9.057900	15.079682
63	1	13.791969	28.229560	24.511762
64	1	5.130138	4.471058	19.379290
65	1	8.683156	13.281702	2.322443
66	1	24.595904	25.638239	8.773517
67	1	25.088369	6.511730	5.062199
68	1	30.056250	25.699620	8.421862
69	1	25.441146	31.152393	10.852428
70	1	19.031054	3.544919	11.360341
71	1	22.199112	25.477012	21.634950
72	1	4.609335	14.098165	1.202075
73	1	22.217001	2.373088	22.526985
74	1	2.315559	21.558264	14.382871
75	1	30.553520	2.876643	22.181726
76	1	24.012069	18.532484	6.749583
77	1	23.445056	8.459305	31.022332
78	1	23.064828	22.743101	16.960709
79	1	12.115440	24.431940	20.586475
80	1	1.004473	28.623082	15.408776
81	1	7.282710	19.563034	18.381042
82	1	0.801086	20.125771	30.338475
83	1	24.146420	11.267705	19.025275
84	1	10.549549	30.242808	10.983407
85	1	28.879493	30.632217	19.748571
86	1	13.037216	13.495081	2.990919
87	1	30.661752	6.968071	2.705094
88	1	23.374836	4.199631	1.716882
89	1	15.829185	17.654624	29.035212
90	1	14.419995	2.352828	4.654858
91	1	2.796795	3.248217	30.153019
92	1	0.808303	28.835736	20.045147
93	1	14.772630	15.664292	21.041640
94	1	7.922696	30.045807	11.023737
95	1	19.323428	14.660677	11.505919
96	1	1.293347	19.101123	11.088586
97	1	6.048009	18.606417	30.010060
98	1	10.074713	5.443007	10.006249
99	1	6.363444	30.070266	2.290436
100	1	19.486908	17.755590	13.067963
101	1	19.190167	11.826596	31.900593
102	1	21.308957	16.861641	31.948089
103	1	7.950335	18.968555	3.641056
104	1	7.074286	16.420539	26.145320
105	1	6.929474	25.069336	25.110853
106	1	20.018874	18.857718	21.449791
107	1	25.510408	4.124722	20.519520
108	1	22.554930	20.896071	13.179427
109	1	5.528601	23.473267	26.415339
110	1	4.862835	20.796397	12.016009
111	1	16.329648	3.390466	28.157655
112	1	13.484685	4.046267	24.801561
113	1	20.301035	1.576860	0.451443
114	1	19.999268	5.458847	30.411952
115	1	7.153593	11.852479	29.960869
116	1	10.616789	17.245901	23.635583
117	1	6.586120	7.791499	8.866196
118	1	20.829810	17.174970	27.168703
119	1	5.254638	29.327171	7.697493
120	1	30.305295	20.234651	7.204221
121	1	20.214404	8.728725	13.068585
122	1	23.323561	30.346477	3.510783
123	1	1.211795	15.599204	8.381954
124	1	2.962982	29.463353	8.427410
125	1	8.303386	16.210014	23.839185
126	1	1.020519	4.759750	31.488905
127	1	9.603423	4.534764	22.403191
128	1	0.627193	8.692132	3.178264
129	1	3.263483	0.429458	29.988284
130	1	23.568783	4.589875	18.796869
131	1	28.754338	5.329779	6.616967
132	1	19.530938	29.522718	19.573198
133	1	31.928070	4.596600	9.438419
134	1	3.658721	11.215823	10.803621
135	1	17.340320	5.159906	26.353985
136	1	2.162897	3.542780	15.313671
137	1	6.934477	15.763672	12.008047
138	1	12.071327	9.862455	31.659068
139	1	13.958066	0.717823	22.243989
140	1	26.792560	12.608971	9.397855
141	1	16.612656	4.643310	0.501834
142	1	31.993903	7.736393	15.163165
143	1	1.938476	26.575033	16.679603
144	1	27.443073	9.683851	2.953234
145	1	9.406954	24.113058	2.611718
146	1	6.683620	27.407982	2.846691
147	1	13.813874	18.271427	20.739680
148	1	6.220295	13.856485	9.943637
149	1	16.327981	6.175586	13.268879
150	1	16.747401	29.728970	27.107072
151	1	27.941966	7.574340	13.616771
152	1	7.463852	8.886656	13.249278
153	1	21.126317	11.062015	30.552523
154	1	29.047891	29.706720	21.985659
155	1	24.645964	15.585205	12.854080
156	1	6.535494	21.429692	16.646424
157	1	8.825589	26.174721	26.237417
158	1	21.118759	5.748537	3.024571
159	1	28.284917	12.860710	32.049856
160	1	27.891893	16.241318	2.718963
161	1	31.792246	18.771247	16.827510
162	1	31.453941	1.501161	4.401221
163	1	28.069528	21.180870	12.408884
164	1	10.334172	29.564444	15.346212
165	1	3.661444	23.229484	30.716157
166	1	4.330763	28.694320	2.099295
167	1	22.088815	9.909303	11.657170
168	1	19.182157	4.626292	18.058692
169	1	11.980974	17.883986	17.456544
170	1	6.382962	26.083001	16.531271
171	1	27.985309	29.760074	31.257356
172	1	14.351493	11.532935	11.870820
173	1	8.423044	15.238937	14.043863
174	1	3.125092	24.858369	3.201602
175	1	8.986209	5.893738	25.348512
176	1	27.051044	24.271664	23.098815
177	1	14.411689	15.351330	28.638448
178	1	21.933609	15.789699	29.729602
179	1	25.397639	11.313816	14.488930
180	1	21.820836	24.663836	4.980482
181	1	25.849131	7.698133	2.962293
182	1	16.319528	10.952121	6.433254
183	1	29.664777	25.233660	1.376748
184	1	23.115669	10.657767	29.089293
185	1	20.364486	26.607850	22.779105
186	1	4.258111	12.917565	3.356477
187	1	4.283400	16.453058	26.246032
188	1	5.835060	12.888538	24.565637
189	1	2.367212	27.265269	2.361043
190	1	9.317098	6.053718	27.861086
191	1	12.984938	7.600112	6.261921
192	1	26.855888	16.576899	20.140360
193	1	9.898228	10.263244	7.710160
194	1	18.007558	7.877411	14.405451
195	1	17.098357	14.557164	5.459423
196	1	31.241127	10.854032	4.195622
197	1	14.929987	30.843340	28.760852
198	1	26.720003	2.840951	29.502146
199	1	19.202944	9.106299	18.717459
200	1	24.457713	17.950757	23.055219
201	1	12.210673	15.604589	27.704991
202	1	16.323563	25.257508	29.477481
203	1	26.613453	31.966553	16.459862
204	1	17.986963	29.577086	9.690718
205	1	9.199189	0.300563	30.511691
206	1	16.329746	1.670600	8.689962
207	1	30.713611	0.605104	28.758547
208	1	17.582766	15.349848	9.499730
209	1	5.841965	11.928691	16.192294
210	1	21.482351	12.034326	15.542552
211	1	28.707652	25.920281	10.700623
212	1	23.759180	15.591436	3.752584
213	1	9.083055	17.681069	7.628611
214	1	14.122166	23.781115	3.522986
215	1	1.879558	26.792145	19.308179
216	1	10.586544	25.158894	17.701259
217	1	16.687359	22.271276	11.059529
218	1	17.831021	3.373885	9.250498
219	1	17.688102	10.797438	17.517741
220	1	6.530516	18.245808	25.051445
221	1	19.796364	21.929266	21.074663
222	1	17.063433	27.482632	30.739663
223	1	29.388294	8.211996	11.504378
224	1	29.534889	21.374154	3.059451
225	1	25.140046	25.930272	29.481850
226	1	7.181094	26.106677	9.570040
227	1	17.427485	31.686903	15.413817
228	1	7.008193	20.619047	31.591685
229	1	15.088112	3.104542	17.680823
230	1	1.649015	13.741271	12.220571
231	1	8.201968	30.560331	4.820206
232	1	31.892912	12.721700	2.463425
233	1	2.927798	0.605458	0.989350
234	1	6.523837	1.355017	16.234868
235	1	15.198286	3.028604	23.061877
236	1	13.392862	17.744848	8.207240
237	1	17.934537	31.565430	17.988092
238	1	2.907829	15.688249	24.008957
239	1	6.148031	7.725533	6.535924
240	1	1.466011	22.644736	18.652614
241	1	19.158445	21.934938	10.718482
242	1	18.777465	21.758454	27.848316
243	1	14.115444	9.327122	10.372908
244	1	2.432927	11.569817	22.283451
245	1	31.195919	1.292277	12.969639
246	1	7.947148	24.485340	7.630046
247	1	14.653906	15.063252	15.412939
248	1	10.531192	13.256538	11.661479
249	1	25.811658	23.601462	29.445937
250	1	24.897317	16.088730	21.434617
251	1	12.848995	10.837745	17.301867
252	1	14.844252	15.767244	12.910539
253	1	21.470728	9.696100	4.899972
254	1	10.751488	9.086107	17.378235
255	1	2.645096	5.092983	22.711211
256	1	12.874372	25.278258	5.476874
257	1	14.023413	25.663594	15.469352
258	1	21.005374	25.947610	31.204643
259	1	4.474941	28.003031	15.767852
260	1	6.128959	29.861811	24.525793
261	1	9.688040	29.685001	31.529468
262	1	10.457713	13.813560	28.144427
263	1	21.772587	21.282774	10.726914
264	1	9.986783	8.151338	3.030415
265	1	5.535210	24.594117	8.251497
266	1	2.036944	16.264295	30.559976
267	1	2.221534	22.867544	2.114442
268	1	29.804948	5.562233	22.371861
269	1	5.138738	12.012586	28.232772
270	1	5.627095	14.357969	17.271416
271	1	12.593067	20.438192	20.737189
272	1	16.756735	9.963171	15.319896
273	1	11.815517	5.222976	28.520471
274	1	9.779306	20.271415	26.923763
275	1	4.208679	0.965854	15.332212
276	1	25.985015	4.611944	13.732003
277	1	24.926130	25.269645	24.790558
278	1	2.385111	17.611301	17.196417
279	1	27.304697	29.828953	15.786895
280	1	7.761054	10.210604	11.134965
281	1	8.672977	12.027172	32.078731
282	1	26.590249	18.979879	21.567302
283	1	27.325012	14.966520	9.966779
284	1	18.337214	25.358652	23.307257
285	1	19.605138	7.076607	17.082675
286	1	2.311886	3.089737	1.141073
287	1	30.939305	1.825823	6.864740
288	1	29.495388	14.866613	11.182784
289	1	29.626116	2.587948	14.576096
290	1	7.003366	1.926498	22.505390
291	1	5.877431	2.521779	5.550042
292	1	6.242888	31.451695	6.447694
293	1	1.714462	2.544160	3.629305
294	1	29.836001	9.225837	2.821955
295	1	9.921874	12.740049	24.954315
296	1	23.227591	14.386080	31.852728
297	1	17.425397	14.421435	25.897612
298	1	18.896588	8.713268	26.967555
299	1	18.539175	7.621986	9.185648
300	1	13.318478	27.404079	1.127158
301	1	6.136589	2.104023	25.761625
302	1	4.925347	4.206240	26.497460
303	1	8.114581	15.301647	27.981847
304	1	7.996316	6.209102	6.102311
305	1	2.646879	15.990018	1.130814
306	1	4.053394	25.195584	15.803777
307	1	1.176074	23.936749	4.623598
308	1	10.876672	18.624494	31.543591
309	1	1.235312	11.900059	0.356103
310	1	3.023657	25.367261	23.466006
311	1	27.594535	11.303424	7.106206
312	1	2.273771	15.706699	13.534692
313	1	10.674877	30.787164	3.789846
314	1	17.559575	29.591854	31.933460
315	1	21.842699	11.415409	6.586411
316	1	13.664029	11.168394	6.608649
317	1	4.357326	31.399377	12.975755
318	1	14.694218	11.837236	18.865187
319	1	13.105209	19.197388	10.156545
320	1	23.153775	31.897886	18.616229
321	1	26.939832	21.564003	22.558879
322	1	29.235150	16.588817	19.340727
323	1	29.008466	4.512700	24.546308
324	1	12.892232	29.315207	28.691532
325	1	12.035442	1.646444	20.215584
326	1	1.307589	6.801856	9.716259
327	1	12.095128	8.979368	24.857929
328	1	28.562225	27.742798	8.608400
329	1	19.296103	14.917359	4.166251
330	1	29.145468	8.635268	17.951475
331	1	7.188961	23.121061	3.456341
332	1	4.656901	10.316683	3.170776
333	1	10.911879	17.856384	27.183766
334	1	1.843989	30.178400	21.772259
335	1	7.544031	28.687588	22.699818
336	1	29.028098	15.563114	6.505292
337	1	12.363785	2.649226	29.689618
338	1	20.636206	11.288233	22.277898
339	1	7.675490	29.233015	6.867738
340	1	25.926711	24.566741	10.795452
341	1	10.943732	14.096249	9.340881
342	1	24.379877	1.358485	10.078949
343	1	29.441322	0.607264	2.991560
344	1	17.486496	17.923974	9.350581
345	1	11.449221	20.566898	1.633745
346	1	7.437563	16.484876	30.214877
347	1	27.445147	20.107447	27.734488
348	1	28.340776	16.624725	14.964590
349	1	7.024720	2.871889	29.900937
350	1	16.873606	31.711804	12.736233
351	1	22.606484	7.872977	21.522817
352	1	1.859515	30.749461	31.317679
353	1	8.166616	16.053318	2.520734
354	1	22.497857	10.304433	26.432134
355	1	17.890405	2.292416	0.499870
356	1	20.923303	13.447868	13.500055
357	1	17.734771	8.634707	2.058428
358	1	21.631296	12.321651	1.258283
359	1	15.990851	29.769539	24.637327
360	1	2.846053	3.990539	27.660782
361	1	10.669910	26.540428	5.375849
362	1	25.432438	2.563705	27.197321
363	1	24.635558	9.866998	12.312296
364	1	17.345354	25.684690	25.591925
365	1	27.797023	25.243787	3.897793
366	1	28.771988	10.199194	4.989709
367	1	28.399402	19.617502	23.266987
368	1	27.593453	20.566910	1.293841
369	1	2.510060	2.011076	19.478957
370	1	27.643935	3.415102	19.090159
371	1	25.171231	24.430944	27.011788
372	1	6.456008	9.516762	15.539692
373	1	29.213416	0.638564	5.536596
374	1	25.654114	24.655440	0.408815
375	1	19.294647	16.338415	30.570321
376	1	27.970614	1.525787	27.584608
377	1	5.726337	18.740784	13.775015
378	1	7.306356	2.404484	11.386862
379	1	3.119494	0.448778	21.393387
380	1	11.801375	4.906321	30.956410
381	1	16.839540	27.199401	9.737619
382	1	5.690123	15.191719	7.885254
383	1	3.366320	28.780309	19.999839
384	1	20.589606	6.514059	22.184445
385	1	30.622389	24.254679	21.008976
386	1	25.592336	28.800434	11.749171
387	1	15.182336	5.208652	19.404079
388	1	22.583415	25.936931	24.065137
389	1	6.789579	30.362640	13.063606
390	1	29.328730	4.858404	9.059888
391	1	18.077726	23.191260	8.741983
392	1	21.281672	8.046769	26.175563
393	1	14.031337	25.675563	19.879354
394	1	26.152556	25.300075	15.222797
395	1	16.711467	1.327256	19.079531
396	1	21.028604	5.097767	11.659538
397	1	4.202721	27.328277	11.873850
398	1	6.461843	3.916666	16.010119
399	1	20.735278	4.602947	25.708294
400	1	21.046547	29.311839	12.774889
401	1	23.053080	11.761391	13.015831
402	1	29.818927	29.839991	12.402573
403	1	18.271962	12.584978	10.047317
404	1	13.712070	3.039830	15.594014
405	1	21.712380	28.403695	7.700851
406	1	16.034688	16.437014	1.768971
407	1	3.602333	13.867547	25.642668
408	1	17.403676	3.928353	13.278410
409	1	26.857700	11.154705	30.810194
410	1	9.416981	4.680371	32.010312
411	1	8.303344	17.587572	19.912007
412	1	4.517958	16.804989	12.609027
413	1	16.447498	2.785700	30.472737
414	1	10.618507	23.920379	4.868363
415	1	0.657360	15.437904	2.754626
416	1	20.962679	25.703314	11.132670
417	1	24.106940	11.909957	16.509689
418	1	7.855902	19.785444	8.649006
419	1	15.314727	7.538617	18.446779
420	1	22.826128	14.393100	24.806217
421	1	14.671308	25.122016	1.506847
422	1	9.693506	31.150835	26.721150
423	1	24.644338	14.498607	17.121223
424	1	31.351143	7.396515	17.467339
425	1	28.105844	28.361022	11.068715
426	1	23.910325	30.521458	25.691496
427	1	27.670600	12.232496	14.175844
428	1	22.971459	28.540861	26.796407
429	1	18.656755	13.129800	29.703833
430	1	30.548182	16.658642	1.628703
431	1	30.728259	19.471082	4.868965
432	1	31.810340	21.960629	8.303438
433	1	23.719540	31.908509	30.070362
434	1	21.720144	15.055380	10.325627
435	1	5.032194	13.027918	30.840103
436	1	29.376927	24.774617	24.436481
437	1	30.526928	12.383930	0.325283
438	1	15.249803	19.105947	8.506785
439	1	25.346382	9.371504	19.877445
440	1	11.610300	5.702500	21.321895
441	1	30.340244	9.652643	29.595235
442	1	24.960914	16.403069	6.050865
443	1	4.459312	25.897322	25.769745
444	1	31.076188	17.966761	26.304604
445	1	31.664764	19.584759	9.090388
446	1	13.621254	24.552634	7.880099
447	1	22.227679	19.343209	31.993167
448	1	19.671160	1.932889	22.331862
449	1	25.414738	23.201640	16.113262
450	1	5.123515	4.370253	12.038315
451	1	2.445966	19.629342	15.908582
452	1	23.529029	20.727353	19.200978
453	1	23.986008	19.716886	11.061588
454	1	12.347779	14.801908	30.082225
455	1	30.426320	2.587285	9.166140
456	1	12.730049	4.185301	19.458057
457	1	13.833555	8.320535	0.675703
458	1	8.355655	6.470349	3.442482
459	1	11.163354	17.898313	13.613434
460	1	32.100308	21.387253	10.788203
461	1	15.918942	31.760542	20.848473
462	1	11.844004	22.535938	3.416221
463	1	2.878809	24.642005	18.145132
464	1	29.513937	20.310322	16.949243
465	1	26.054254	27.269443	7.319499
466	1	12.769780	17.656000	30.068222
467	1	4.572207	29.754062	17.812929
468	1	2.726042	4.856529	25.177678
469	1	19.623053	19.420342	27.371413
470	1	15.344998	4.046311	9.558612
471	1	28.699366	7.421913	9.207802
472	1	27.113362	10.086855	18.279434
473	1	2.415951	5.756489	29.492640
474	1	27.464621	22.472762	7.873482
475	1	17.659751	11.019609	22.373833
476	1	29.520329	30.251200	9.828568
477	1	3.436863	12.072075	5.541898
478	1	20.530729	25.928844	28.550796
479	1	9.138830	21.271446	17.895438
480	1	17.374002	25.743659	19.247546
481	1	14.817157	10.558018	22.086988
482	1	13.152324	3.590889	2.904265
483	1	29.841283	16.790185	12.870490
484	1	24.336100	7.623262	7.211385
485	1	31.966545	28.407701	12.931811
486	1	16.861258	19.900221	18.422359
487	1	6.986388	21.434904	10.604470
488	1	4.972269	23.932089	24.008489
489	1	30.975572	23.166714	1.769189
490	1	28.491566	17.125156	10.720920
491	1	10.743414	12.580727	4.124240
492	1	2.580432	19.954407	28.401371
493	1	4.098918	26.519838	20.778244
494	1	23.342633	8.441864	19.119451
495	1	6.910581	30.837380	8.854607
496	1	5.225056	10.547103	30.841177
497	1	9.652047	2.358467	2.745811
498	1	12.497063	9.799447	12.427727
499	1	10.802057	22.239507	14.368309
500	1	12.008063	23.127545	12.667511
501	1	20.952113	31.916543	12.244638
502	1	4.182374	3.226547	21.514896
503	1	17.432520	16.511146	11.896890
504	1	11.351645	14.997550	5.108240
505	1	29.549589	15.883763	8.740856
506	1	0.324773	13.051557	7.774107
507	1	10.320564	27.352004	16.352007
508	1	2.055635	25.141111	29.957491
509	1	5.776288	18.101185	22.532705
510	1	20.054354	11.637817	17.645952
511	1	4.210317	23.123782	19.561091
512	1	19.568327	6.245525	6.680308
513	1	14.571206	6.658473	11.474878
514	1	16.526679	5.422833	17.407948
515	1	23.569389	19.750308	2.465298
516	1	12.150565	12.167826	13.361463
517	1	26.749404	22.312745	31.451328
518	1	5.447241	31.734416	26.295606
519	1	30.479480	8.409796	32.102692
520	1	20.808549	4.204112	23.381429
521	1	7.074993	20.534701	26.225674
522	1	27.768965	21.794373	18.308461
523	1	3.348346	9.302769	22.953841
524	1	15.380514	6.598064	31.130553
525	1	3.857440	9.756216	27.676137
526	1	23.234178	9.472886	6.822846
527	1	31.601536	26.512491	20.821050
528	1	23.927359	2.555311	29.522022
529	1	17.186210	3.711013	19.241268
530	1	28.779501	5.160606	2.637592
531	1	28.889945	28.067139	27.038662
532	1	2.325199	13.589165	1.876695
533	1	26.282457	9.168315	8.312838
534	1	3.201095	31.530494	27.442067
535	1	6.090115	23.411560	15.096050
536	1	26.949017	28.537341	23.058439
537	1	19.859808	7.563840	1.447367
538	1	23.488188	27.792571	16.081707
539	1	17.279534	10.033191	4.148163
540	1	31.836971	8.747380	25.671859
541	1	3.663087	28.129987	24.666461
542	1	29.471813	7.393820	15.639951
543	1	15.081005	20.335722	28.744163
544	1	24.193746	22.931616	31.238694
545	1	27.461586	19.377130	10.506131
546	1	2.744295	21.145047	-1.138430
547	1	2.628899	22.950997	22.971013
548	1	25.211589	18.640036	19.608738
549	1	21.024765	12.040570	28.236088
550	1	16.331690	24.796503	16.034379
551	1	8.566069	18.714777	30.662969
552	1	26.236522	21.089628	20.076823
553	1	5.639637	13.939499	21.474911
554	1	6.661429	7.957926	17.811744
555	1	6.933221	2.477102	3.148488
556	1	29.745469	19.642571	28.007642
557	1	6.299360	9.003728	23.925588
558	1	2.697821	8.559849	25.713746
559	1	10.028622	31.504158	17.079042
560	1	20.366655	14.319741	19.885258
561	1	25.659253	31.011494	3.995350
562	1	4.947785	30.806425	19.990230
563	1	1.913435	26.578417	4.904422
564	1	27.314359	29.047048	6.298313
565	1	13.440318	15.957984	2.104978
566	1	9.223102	26.585283	2.601126
567	1	31.027683	13.824613	4.399620
568	1	12.218819	30.243904	13.274995
569	1	5.917022	27.938716	32.145417
570	1	24.968574	10.070104	27.252416
571	1	30.948159	21.537341	29.468453
572	1	29.389856	17.646374	17.016704
573	1	22.629466	15.093229	20.409141
574	1	10.657299	0.963325	28.641794
575	1	29.551177	26.414643	17.046437
576	1	22.626423	20.344251	16.667514
577	1	13.074528	20.112308	7.143251
578	1	17.449198	25.458785	8.095872
579	1	27.976264	2.944669	10.128647
580	1	2.808388	31.473943	10.837627
581	1	21.629444	18.734707	11.802273
582	1	15.446303	1.212854	6.487890
583	1	25.185294	23.352553	8.511615
584	1	27.603084	21.076798	25.177429
585	1	1.232156	2.918031	7.978762
586	1	0.832707	5.250996	11.710539
587	1	29.556678	27.199130	12.871989
588	1	6.255812	6.563171	12.639057
589	1	14.148157	2.351052	31.572671
590	1	4.756782	21.007531	14.557076
591	1	31.120841	3.211543	32.106178
592	1	20.061190	10.698435	26.216139
593	1	30.582425	5.756399	4.925166
594	1	21.850888	0.726725	9.947892
595	1	0.964183	3.208653	26.204575
596	1	3.782938	11.670649	0.918105
597	1	3.832578	14.822983	9.204782
598	1	26.230056	25.742162	19.394473
599	1	7.370386	30.164024	27.003979
600	1	23.034084	21.822878	1.449095
601	1	17.973274	6.427203	22.272226
602	1	4.259772	16.187255	21.786168
603	1	19.926654	3.198029	16.055203
604	1	2.483998	8.971294	10.220474
605	1	27.379994	15.637715	12.543658
606	1	14.768487	13.462479	30.614631
607	1	10.242453	4.180324	26.660185
608	1	26.453790	18.981225	5.732436
609	1	9.651488	9.631543	0.907161
610	1	25.582962	8.825554	14.338896
611	1	6.361431	32.015164	10.971256
612	1	23.318014	17.445450	1.712667
613	1	22.378646	12.583341	20.634394
614	1	21.618404	29.088966	15.264401
615	1	13.207724	16.602892	19.075962
616	1	11.955635	31.485767	22.009721
617	1	30.146337	12.976424	24.809668
618	1	23.857522	11.206657	4.935239
619	1	17.789416	22.721478	15.279121
620	1	22.299005	6.470443	8.407679
621	1	4.560824	31.705003	8.691288
622	1	20.219534	4.089819	13.757237
623	1	21.487206	15.388926	5.198093
624	1	5.961535	6.406864	1.985676
625	1	2.592900	17.520772	5.940070
626	1	26.230418	13.505592	27.329999
627	1	8.177371	22.528675	1.076491
628	1	23.722401	25.535989	4.052146
629	1	24.206640	19.966153	4.741150
630	1	31.208404	11.742353	9.625005
631	1	30.903340	16.019282	15.300755
632	1	28.672311	8.711177	6.970539
633	1	21.203238	21.100758	28.515342
634	1	17.773538	10.331413	8.423656
635	1	12.204536	15.153701	20.795492
636	1	20.495837	15.156719	25.412392
637	1	14.980469	9.178193	7.764637
638	1	7.010966	28.348689	9.203826
639	1	18.052880	6.078368	2.590584
640	1	24.578426	16.992296	8.620571
641	1	6.421136	0.528944	30.565269
642	1	10.509608	8.188266	13.028107
643	1	8.769157	31.518541	7.226241
644	1	8.094071	11.741719	20.544513
645	1	14.242910	11.661777	26.320154
646	1	22.526915	21.698586	23.325861
647	1	14.256220	22.550138	11.864299
648	1	2.092433	18.384254	26.594163
649	1	5.713832	16.489525	28.327137
650	1	27.068434	6.023247	0.535692
651	1	23.735833	8.665661	4.325997
652	1	4.420514	16.299460	17.321442
653	1	21.954015	29.278127	17.828002
654	1	22.332480	19.331982	27.116113
655	1	16.392176	21.341575	24.596863
656	1	4.586191	23.779012	1.370164
657	1	26.000733	17.312364	14.158728
658	1	16.628151	14.130775	14.106640
659	1	1.609190	11.809036	16.391916
660	1	26.638492	4.418190	5.596826
661	1	31.046629	14.313404	22.717755
662	1	3.557816	30.573445	6.139328
663	1	16.229253	16.674245	26.768354
664	1	18.130936	26.465530	5.980530
665	1	1.608058	20.348741	1.098470
666	1	3.846951	13.432462	23.137968
667	1	1.733279	1.588558	5.890917
668	1	9.666949	30.390387	22.529404
669	1	11.397171	22.378574	19.315436
670	1	9.853356	13.305957	14.011138
671	1	17.138439	29.750387	29.539869
672	1	29.354512	12.414903	16.057320
673	1	26.825263	0.747663	9.343987
674	1	27.765138	5.794213	20.346106
675	1	21.788990	23.673635	32.105118
676	1	14.028509	28.397254	12.661435
677	1	5.359794	30.964017	28.825045
678	1	15.013888	18.816858	30.869262
679	1	26.661127	7.591657	18.323373
680	1	14.645457	17.627687	25.045443
681	1	8.854420	8.341390	19.205963
682	1	2.878047	29.078438	4.159588
683	1	30.440857	5.078333	26.726178
684	1	3.519765	17.047522	15.057351
685	1	17.295433	29.788757	22.339589
686	1	8.776911	0.326298	12.524759
687	1	31.957597	1.043161	18.489030
688	1	21.305283	23.242920	2.874201
689	1	18.540906	12.569496	12.562635
690	1	13.227091	0.777641	14.581855
691	1	30.705296	6.424548	10.579537
692	1	24.201789	22.084190	12.137564
693	1	31.497957	13.506564	17.206323
694	1	15.323091	31.823612	26.248284
695	1	10.808398	22.773746	16.784130
696	1	5.773486	30.661938	15.537814
697	1	0.379069	17.704942	12.788164
698	1	22.858058	30.101361	23.308397
699	1	9.227022	29.716905	8.848840
700	1	6.559233	20.152110	23.670257
701	1	27.570633	30.700414	11.633614
702	1	12.389555	17.117850	4.060389
703	1	21.469067	4.185752	6.951280
704	1	30.035682	17.720135	23.594570
705	1	16.798732	10.875361	11.241256
706	1	22.731242	31.040310	14.014606
707	1	25.260713	27.086190	27.036309
708	1	3.292313	29.603467	29.296395
709	1	1.211692	19.315909	21.351545
710	1	5.850139	14.288949	26.786236
711	1	3.884628	24.344993	28.144513
712	1	19.996562	30.973415	14.397829
713	1	3.873563	2.460210	8.237486
714	1	0.478661	21.700137	24.280513
715	1	1.697848	23.121247	9.729262
716	1	5.276118	28.185729	29.709289
717	1	23.699209	25.521945	19.799933
718	1	5.534360	6.091128	10.192223
719	1	21.723713	20.701121	3.770250
720	1	6.775547	21.084306	5.041909
721	1	18.272791	24.436598	27.832268
722	1	9.940684	15.356860	7.188472
723	1	4.956963	16.666791	5.918377
724	1	18.476220	21.373379	17.217749
725	1	2.548409	7.929039	14.600328
726	1	21.262894	24.350295	15.830056
727	1	7.732286	31.038569	0.490668
728	1	14.267840	29.481315	26.575894
729	1	31.147714	30.547490	19.110415
730	1	30.196287	9.024473	13.813192
731	1	28.871769	18.113469	21.270946
732	1	1.497809	15.461738	15.957590
733	1	24.731766	2.877487	22.572235
734	1	6.710797	27.848894	11.873026
735	1	22.282089	10.410592	17.239747
736	1	26.577552	1.161347	11.929431
737	1	26.774802	8.304179	10.701546
738	1	11.949376	22.125524	8.332264
739	1	26.005166	10.656220	10.398625
740	1	16.924094	2.741789	4.691507
741	1	11.769592	16.336107	32.024468
742	1	25.039122	5.279026	23.016196
743	1	31.418065	29.067314	26.699093
744	1	4.899849	5.745834	21.535889
745	1	7.458756	15.973747	6.596012
746	1	19.937626	17.107462	15.736531
747	1	27.925882	13.912654	19.730127
748	1	15.535196	20.855777	6.621223
749	1	8.517070	22.689930	6.010542
750	1	10.087196	11.811138	22.436125
751	1	12.049971	29.521224	31.530513
752	1	16.438678	7.536615	3.959608
753	1	27.212161	26.239885	1.616618
754	1	11.032197	4.206752	17.273928
755	1	28.893840	0.466656	8.261890
756	1	21.734839	27.896297	10.796965
757	1	0.495210	3.810707	5.379727
758	1	18.718336	12.690353	27.143303
759	1	6.020983	22.855578	31.482424
760	1	12.169745	24.803460	24.507813
761	1	2.650368	20.624516	23.203929
762	1	3.675867	18.112552	1.496763
763	1	28.480513	26.126861	14.985400
764	1	10.109349	27.320861	13.721860
765	1	30.192813	11.451166	13.852959
766	1	27.198634	13.834298	2.170121
767	1	11.676874	29.289700	20.955146
768	1	12.586013	30.815612	16.124137
769	1	15.406589	21.280187	31.276133
770	1	10.952809	4.747527	24.270520
771	1	14.715739	26.515197	31.145008
772	1	28.376330	7.699469	1.546005
773	1	31.238298	0.288360	8.872565
774	1	6.614035	22.056708	7.950314
775	1	31.433739	22.118965	5.812513
776	1	29.848891	2.860428	2.245609
777	1	25.179577	12.108268	29.263875
778	1	8.482077	23.538650	14.275594
779	1	17.682831	29.586543	14.140587
780	1	12.611844	25.207555	31.949257
781	1	21.277294	14.798193	15.638609
782	1	19.071484	-0.404519	23.561571
783	1	1.253404	3.387772	17.661964
784	1	17.651123	3.742282	2.638677
785	1	15.743525	4.482146	15.276346
786	1	10.082817	27.879941	22.434360
787	1	10.964756	26.927024	24.769867
788	1	26.313623	27.084266	9.975474
789	1	12.975441	13.072395	15.824690
790	1	17.121431	17.247624	31.305611
791	1	17.421575	8.149841	17.071552
792	1	26.533580	11.558625	1.494804
793	1	5.630141	25.009998	3.726213
794	1	23.118281	27.976782	3.926009
795	1	21.521765	28.050708	24.718858
796	1	24.405646	26.640478	2.019754
797	1	23.680248	8.630257	1.650666
798	1	14.396787	31.994723	12.319489
799	1	1.653015	18.050745	8.672002
800	1	12.917574	21.678236	17.370994
801	1	27.394106	15.776483	26.864143
802	1	23.541882	21.343871	8.890502
803	1	23.740252	31.884976	5.758603
804	1	19.974117	17.262468	4.226384
805	1	9.040502	18.312688	25.345291
806	1	31.819931	27.697317	1.240969
807	1	0.319937	5.246233	21.460009
808	1	2.882438	12.016122	13.356231
809	1	28.434257	14.361537	4.381719
810	1	15.326153	24.968050	5.519185
811	1	1.304336	8.171213	7.417666
812	1	26.421621	1.148167	23.162475
813	1	27.932527	30.896389	23.956165
814	1	13.173419	4.215876	8.205185
815	1	20.422670	16.327198	21.390888
816	1	30.197926	22.117548	11.940476
817	1	14.136174	7.500597	25.020872
818	1	8.628140	3.346790	9.308550
819	1	10.197806	13.570087	20.618063
820	1	6.478553	9.593850	19.836864
821	1	9.973018	20.236013	13.315485
822	1	16.293418	11.693892	13.597984
823	1	27.420476	16.681568	5.174405
824	1	28.868570	18.377566	6.236108
825	1	21.831073	31.409100	16.340071
826	1	10.491851	25.411693	22.335031
827	1	24.928488	15.497138	23.902016
828	1	31.906195	23.564938	26.110053
829	1	13.056530	11.153872	3.693031