ITEM: TIMESTEP
0
ITEM: NUMBER OF ATOMS
2000
ITEM: BOX BOUNDS pp pp pp
0.299875	32.130125
0.299875	32.130125
0.299875	32.130125
ITEM: ATOMS id type x y z
1	1	8.079945	21.751967	22.157182
2	1	25.694823	0.646767	28.744877
3	1	19.931695	11.659593	8.385571
4	1	16.135596	26.464391	11.931918
5	1	23.465802	19.843153	24.749291
6	1	3.825716	19.111950	21.334851
7	1	22.753147	23.697598	25.350847
8	1	9.605515	18.574501	18.008942
9	1	15.044873	16.989567	17.015764
10	1	21.803199	3.700349	31.135701
11	1	19.484303	18.767890	8.051806
12	1	6.597117	4.806094	31.800513
13	1	22.369217	11.940602	24.174212
14	1	4.172550	6.662607	5.403901
15	1	3.413099	30.672273	25.073544
16	1	26.005355	19.637519	24.056727
17	1	7.401012	26.549656	30.435667
18	1	15.534028	29.605341	6.352410
19	1	27.891139	18.348231	12.940450
20	1	2.973681	24.712534	8.589585
21	1	31.701072	15.315785	12.518700
22	1	23.615880	28.618310	13.482983
23	1	8.846835	29.345284	17.457416
24	1	20.583020	31.519675	18.513686
25	1	16.633675	29.365483	16.599053
26	1	23.370052	17.407188	28.162029
27	1	30.184228	28.613493	5.205806
28	1	24.379920	26.231958	14.201877
29	1	9.073776	29.006264	20.154909
30	1	17.979643	26.928163	16.300404
31	1	27.902375	2.997663	12.650777
32	1	25.692117	1.318757	31.278092
33	1	21.317504	3.764450	19.327652
34	1	26.147507	20.522374	3.554402
35	1	24.814923	13.035458	24.454028
36	1	5.849135	0.646295	1.401280
37	1	22.058658	18.953557	22.995650
38	1	18.127043	31.838871	1.132299
39	1	25.461960	17.538678	25.321285
40	1	23.632452	18.376415	17.693208
41	1	28.880507	0.572706	21.989890
42	1	17.256298	18.730969	6.766818
43	1	8.427595	26.578423	23.779369
44	1	24.254817	21.444714	14.881340
45	1	22.743575	16.161368	22.756757
46	1	16.234176	27.436355	4.864317
47	1	21.496725	19.242854	18.772049
48	1	16.950178	14.997871	16.472260
49	1	21.562441	9.557480	0.706318
50	1	25.109994	10.286111	2.876777
51	1	10.989595	28.132617	3.650135
52	1	1.377757	7.376922	19.411743
53	1	5.539566	8.369163	26.096638
54	1	5.888455	3.756189	9.624244
55	1	12.404772	16.379144	25.368467
56	1	26.276966	1.730249	20.672590
57	1	15.114218	14.371973	9.020495
58	1	18.788308	15.207290	23.597867
59	1	11.127505	22.391725	25.716250
60	1	21.070634	18.462994	2.199790
61	1	11.574902	17.628383	6.567549
62	1	9.145438	9.065957	15.061822
63	1	13.784917	28.234788	24.497327
64	1	5.147610	4.471690	19.376290
65	1	8.677959	13.241060	2.362690
66	1	24.597599	25.648557	8.767383
67	1	25.093561	6.521063	5.064280
68	1	30.060235	25.706836	8.413284
69	1	25.473983	31.141821	10.841042
70	1	19.061035	3.541927	11.348989
71	1	22.230392	25.440296	21.651734
72	1	4.632091	14.110208	1.203367
73	1	22.222579	2.363629	22.517970
74	1	2.280990	21.575295	14.361161
75	1	30.543448	2.841827	22.162212
76	1	23.986675	18.522643	6.759608
77	1	23.456041	8.453314	31.021647
78	1	23.057063	22.714565	16.905279
79	1	12.102211	24.435321	20.582024
80	1	1.037308	28.559670	15.435481
81	1	7.278381	19.552121	18.381951
82	1	0.802673	20.167695	30.277771
83	1	24.146844	11.267278	19.001904
84	1	10.559170	30.258980	11.001234
85	1	28.867953	30.583781	19.754416
86	1	13.039239	13.502393	2.985486
87	1	30.682727	6.953633	2.728354
88	1	23.377346	4.203735	1.723651
89	1	15.854581	17.687571	29.038854
90	1	14.423066	2.304132	4.603053
91	1	2.761071	3.246447	30.107717
92	1	0.793147	28.804188	20.057002
93	1	14.752220	15.662760	21.039040
94	1	7.929170	30.047250	11.047102
95	1	19.310329	14.641879	11.510536
96	1	1.243907	19.164891	11.078445
97	1	6.068757	18.599082	30.006631
98	1	10.020950	5.489281	10.009107
99	1	6.355454	29.792044	1.750483
100	1	19.461202	17.737880	13.063432
101	1	19.212353	11.861052	31.908772
102	1	21.262351	16.958259	31.961659
103	1	7.956394	19.003250	3.645744
104	1	7.111510	16.412412	26.135267
105	1	6.950951	25.066061	25.166375
106	1	20.007124	18.872433	21.457023
107	1	25.522652	4.115257	20.509383
108	1	22.526415	20.846003	13.203180
109	1	5.536801	23.456926	26.443302
110	1	4.821456	20.833276	12.003215
111	1	16.322383	3.378731	28.161390
112	1	13.483989	4.050473	24.823035
113	1	20.307442	1.592357	0.443963
114	1	20.007758	5.461979	30.387314
115	1	7.171250	11.851769	29.958573
116	1	10.624475	17.265780	23.631473
117	1	6.556671	7.899582	8.942932
118	1	20.887393	17.179823	27.181433
119	1	5.223330	29.420620	7.646764
120	1	30.262300	20.269891	7.222731
121	1	20.226576	8.702775	13.023012
122	1	23.314934	30.390706	3.525093
123	1	1.198513	15.645285	8.384195
124	1	2.971972	29.494892	8.481063
125	1	8.325319	16.209480	23.829959
126	1	1.043373	4.787540	31.473444
127	1	9.632607	4.542749	22.386729
128	1	0.639029	8.688483	3.194559
129	1	3.193090	0.446200	29.932508
130	1	23.575045	4.567964	18.790348
131	1	28.754683	5.300972	6.576928
132	1	19.530556	29.502527	19.583255
133	1	31.919616	4.586641	9.420084
134	1	3.637207	11.240815	10.795145
135	1	17.332525	5.158445	26.336980
136	1	2.151560	3.560038	15.312318
137	1	6.921572	15.786264	11.994998
138	1	12.096188	9.886715	31.631464
139	1	13.947073	0.722684	22.242773
140	1	26.792418	12.621603	9.402287
141	1	16.608507	4.654638	0.519694
142	1	31.985886	7.758239	15.156542
143	1	1.858768	26.489005	16.719170
144	1	27.459376	9.686845	2.953064
145	1	9.364721	24.163768	2.605114
146	1	6.647228	27.413599	2.876510
147	1	13.804129	18.275972	20.737119
148	1	6.207857	13.883911	9.942126
149	1	16.236822	6.106037	13.309066
150	1	16.708791	29.738673	27.118229
151	1	27.939807	7.596067	13.613953
152	1	7.453358	8.915352	13.250384
153	1	21.130029	11.054705	30.552636
154	1	29.022668	29.696723	22.002837
155	1	24.629840	15.566099	12.847370
156	1	6.516836	21.437071	16.651384
157	1	8.817529	26.205458	26.280810
158	1	21.119759	5.759963	3.022663
159	1	28.303254	12.886879	32.039656
160	1	27.867787	16.237190	2.719037
161	1	31.760332	18.638508	16.885626
162	1	31.551150	1.457265	4.463576
163	1	28.000517	21.172321	12.436786
164	1	10.349102	29.577631	15.362680
165	1	3.679672	23.197536	30.705285
166	1	4.239436	28.676304	2.036985
167	1	22.091558	9.891959	11.656547
168	1	19.185860	4.579252	18.004127
169	1	11.974086	17.899439	17.439908
170	1	6.349176	26.057687	16.556581
171	1	27.992716	29.757750	31.278838
172	1	14.337689	11.551220	11.847768
173	1	8.400276	15.262345	14.042417
174	1	3.098110	24.897052	3.234860
175	1	8.999019	5.890998	25.344650
176	1	27.051691	24.256655	23.099603
177	1	14.427474	15.379088	28.649755
178	1	21.904072	15.840669	29.683128
179	1	25.403681	11.305645	14.485893
180	1	21.809314	24.701753	4.990955
181	1	25.861686	7.705907	2.968910
182	1	16.323395	10.984218	6.427205
183	1	29.603145	25.211152	1.376731
184	1	23.131931	10.645930	29.084145
185	1	20.373824	26.582839	22.780601
186	1	4.263136	12.935506	3.342385
187	1	4.320128	16.452047	26.244088
188	1	5.883802	12.854842	24.585895
189	1	2.318009	27.298140	2.379048
190	1	9.335431	6.047316	27.855576
191	1	12.992218	7.588160	6.238753
192	1	26.844629	16.562086	20.150653
193	1	9.901340	10.295300	7.694687
194	1	17.593888	7.222467	16.249439
195	1	17.098821	14.573554	5.455587
196	1	31.251314	10.857222	4.184522
197	1	14.870918	30.827221	28.764010
198	1	26.712369	2.828057	29.504429
199	1	19.289614	9.149640	18.742005
200	1	24.435224	18.006365	22.950343
201	1	12.221995	15.607032	27.700622
202	1	16.317856	25.261323	29.473942
203	1	26.666092	31.881340	16.419329
204	1	17.987699	29.602092	9.707750
205	1	9.255200	0.458652	30.580916
206	1	16.331818	1.704005	8.686477
207	1	30.644251	0.553972	28.751419
208	1	17.580883	15.346181	9.493442
209	1	5.839337	11.930730	16.183846
210	1	21.478004	11.992740	15.527376
211	1	28.754263	25.981486	10.703002
212	1	23.758096	15.595063	3.745626
213	1	9.065564	17.709481	7.625933
214	1	14.099688	23.816208	3.516784
215	1	1.850436	26.741210	19.342041
216	1	10.560863	25.165261	17.688646
217	1	16.666923	22.283791	11.064937
218	1	17.796790	3.420157	9.328692
219	1	17.689151	11.006101	17.559715
220	1	6.527442	18.230937	25.052171
221	1	19.776085	21.922109	21.052760
222	1	17.017868	27.496134	30.730057
223	1	29.389199	8.226953	11.504266
224	1	29.549212	21.390003	3.062594
225	1	25.079565	25.985864	29.514963
226	1	7.175348	26.124421	9.593129
227	1	17.443614	31.672068	15.407062
228	1	7.014006	20.632083	31.600307
229	1	15.083085	3.066033	17.654001
230	1	1.646172	13.768389	12.239785
231	1	8.455074	30.635551	4.965544
232	1	31.901328	12.727180	2.469608
233	1	2.881142	0.628292	0.914223
234	1	6.479936	1.337781	16.298481
235	1	15.191353	3.039369	23.046151
236	1	13.369526	17.777823	8.216731
237	1	17.958193	31.540313	17.985791
238	1	2.956403	15.658867	24.017126
239	1	6.127821	7.861726	6.638588
240	1	1.518685	22.586830	18.685558
241	1	19.130429	21.927994	10.722315
242	1	18.799740	21.787383	27.856082
243	1	14.105200	9.337154	10.357509
244	1	2.464743	11.537842	22.300347
245	1	31.202125	1.305887	12.960094
246	1	7.927615	24.509160	7.638245
247	1	14.646187	15.082864	15.396412
248	1	10.524417	13.271596	11.653271
249	1	25.494705	23.600736	29.476705
250	1	24.837956	16.097014	21.363051
251	1	12.808688	10.822383	17.269275
252	1	14.838566	15.784550	12.900020
253	1	21.477132	9.704382	4.902847
254	1	10.712136	9.093580	17.339118
255	1	2.656612	5.062041	22.685616
256	1	12.838723	25.313957	5.460010
257	1	14.027525	25.664918	15.469904
258	1	20.938774	25.962199	31.202939
259	1	4.377436	27.951725	15.802089
260	1	6.133386	29.847845	24.544905
261	1	9.596393	29.782485	31.605308
262	1	10.471867	13.813331	28.131120
263	1	21.752010	21.278229	10.736687
264	1	10.081496	8.121733	3.006140
265	1	5.524961	24.628617	8.244447
266	1	2.062586	16.261091	30.572543
267	1	2.192575	22.906590	2.166995
268	1	29.802680	5.527768	22.348255
269	1	5.159138	12.005299	28.232542
270	1	5.620769	14.354069	17.257896
271	1	12.591104	20.448139	20.734480
272	1	16.791408	9.850903	15.323268
273	1	11.829104	5.212048	28.520909
274	1	9.796002	20.263419	26.920576
275	1	4.191537	0.960351	15.348785
276	1	25.988305	4.574817	13.741216
277	1	24.919129	25.228280	24.796784
278	1	2.384773	17.641890	17.218772
279	1	27.396906	29.679319	15.776900
280	1	7.742072	10.224094	11.107722
281	1	8.689476	12.015191	32.085108
282	1	26.578878	19.055593	21.534369
283	1	27.313262	14.989782	9.965448
284	1	18.335141	25.350469	23.310530
285	1	19.658491	7.020137	17.163925
286	1	2.271690	3.088753	1.095651
287	1	30.860930	1.746987	6.869569
288	1	29.485091	14.894289	11.178613
289	1	29.639035	2.667045	14.581213
290	1	6.982623	1.924358	22.500534
291	1	5.579510	2.369241	5.705300
292	1	6.303494	31.520444	6.351500
293	1	1.762878	2.532420	3.649131
294	1	29.853565	9.218289	2.825484
295	1	9.955501	12.736701	24.948518
296	1	23.251477	14.231823	31.884375
297	1	17.446067	14.442568	25.909103
298	1	18.897639	8.705870	26.954450
299	1	18.547144	7.627111	9.157117
300	1	13.199335	27.339798	0.969518
301	1	6.136424	2.109726	25.745234
302	1	4.932280	4.201520	26.488656
303	1	8.141395	15.292864	27.979066
304	1	7.907075	6.266096	6.110765
305	1	2.671856	16.003575	1.137198
306	1	3.979011	25.154559	15.826256
307	1	1.155118	23.989607	4.633279
308	1	10.886879	18.638873	31.543880
309	1	1.242111	11.903819	0.342940
310	1	3.064199	25.376058	23.503271
311	1	27.598997	11.315915	7.105054
312	1	2.255768	15.776453	13.530025
313	1	10.960417	30.568121	3.826605
314	1	17.525280	29.606515	31.936264
315	1	21.839829	11.422659	6.588525
316	1	13.652142	11.197815	6.608632
317	1	4.405037	31.358587	13.080064
318	1	14.653872	11.906706	18.836964
319	1	13.087852	19.218741	10.163822
320	1	23.196096	31.856693	18.619699
321	1	26.919569	21.631818	22.563113
322	1	29.207256	16.515899	19.365923
323	1	29.002070	4.489754	24.536226
324	1	12.760929	29.246277	28.656887
325	1	12.039417	1.649050	20.201616
326	1	1.281616	6.811635	9.703707
327	1	12.122193	8.960883	24.839672
328	1	28.604050	27.760101	8.566904
329	1	19.304440	14.936816	4.162159
330	1	29.142540	8.643701	17.952368
331	1	7.150427	23.155120	3.451472
332	1	4.672959	10.337918	3.151925
333	1	10.930528	17.873965	27.187968
334	1	1.836167	30.156208	21.770279
335	1	7.536726	28.694615	22.673986
336	1	29.009850	15.572212	6.506478
337	1	12.391950	2.640149	29.758767
338	1	20.647145	11.300998	22.285798
339	1	7.644427	29.260188	6.871285
340	1	25.857901	24.563629	10.752465
341	1	10.937030	14.128684	9.334496
342	1	24.380700	1.352893	10.092556
343	1	29.474508	0.635546	3.011695
344	1	17.483966	17.925579	9.348466
345	1	11.437595	20.574407	1.644505
346	1	7.457496	16.477273	30.211700
347	1	27.371747	19.848535	27.919182
348	1	28.326654	16.632552	14.959461
349	1	7.033186	2.882347	29.886055
350	1	16.894696	31.712401	12.745899
351	1	22.637347	7.884471	21.523179
352	1	1.781445	30.726362	31.264490
353	1	8.171896	16.053005	2.521572
354	1	22.507583	10.303978	26.435798
355	1	17.913780	2.315353	0.493630
356	1	20.910654	13.427780	13.494389
357	1	17.747635	8.656138	2.055767
358	1	21.649506	12.326361	1.244491
359	1	15.977084	29.779173	24.645192
360	1	2.843498	3.975348	27.637124
361	1	10.644835	26.551567	5.410469
362	1	25.430863	2.547340	27.196301
363	1	24.630169	9.853450	12.310771
364	1	17.348943	25.702433	25.583884
365	1	27.790094	25.188415	3.816504
366	1	28.792856	10.203128	4.989278
367	1	28.386668	19.624602	23.272542
368	1	27.580295	20.602457	1.357121
369	1	2.492410	1.970196	19.447381
370	1	27.655168	3.400701	19.068631
371	1	25.195321	24.408911	26.997676
372	1	6.453376	9.520202	15.531937
373	1	29.175416	0.676735	5.483006
374	1	25.338875	24.534258	0.352848
375	1	19.264023	16.355635	30.582972
376	1	27.966031	1.501459	27.585401
377	1	5.697410	18.756235	13.767517
378	1	7.270387	2.418418	11.351734
379	1	3.109589	0.421433	21.365169
380	1	11.827074	4.895158	30.966538
381	1	16.831573	27.219445	9.746502
382	1	5.674200	15.217315	7.885855
383	1	3.342158	28.752621	20.009559
384	1	20.601383	6.526222	22.181544
385	1	30.681237	24.191941	21.108610
386	1	25.657098	28.792729	11.736044
387	1	15.202814	5.194199	19.349858
388	1	22.602364	25.897160	24.047438
389	1	6.823119	30.355591	13.109814
390	1	29.317933	4.856376	9.042416
391	1	18.043492	23.201450	8.766818
392	1	21.283962	8.045069	26.158483
393	1	14.022555	25.677386	19.875491
394	1	26.378882	25.311173	15.170301
395	1	16.732537	1.286544	19.092353
396	1	21.097146	5.068545	11.603338
397	1	4.198249	27.302965	11.933260
398	1	6.470055	3.906395	15.998045
399	1	20.736965	4.597773	25.694429
400	1	21.125010	29.233962	12.753656
401	1	23.044238	11.736872	13.033294
402	1	29.903629	29.909387	12.363279
403	1	18.273579	12.563252	10.044775
404	1	13.714728	3.040522	15.551226
405	1	21.733990	28.423843	7.771415
406	1	16.036420	16.461091	1.774603
407	1	3.666004	13.842440	25.657876
408	1	17.367166	3.911371	13.118093
409	1	26.865739	11.147360	30.808893
410	1	9.454984	4.712729	32.031502
411	1	8.305827	17.583124	19.901968
412	1	4.499735	16.835434	12.594900
413	1	16.444725	2.793564	30.491678
414	1	10.605662	23.931188	4.865549
415	1	0.672874	15.452501	2.768985
416	1	20.953015	25.719088	11.136181
417	1	24.078839	11.877652	16.494084
418	1	7.837101	19.809890	8.648694
419	1	15.317657	7.512726	18.376821
420	1	22.805033	14.388090	24.769694
421	1	14.644179	25.128801	1.491267
422	1	9.698313	31.182575	26.669513
423	1	24.647103	14.478103	17.109479
424	1	31.348610	7.399713	17.458374
425	1	28.153395	28.405229	11.014859
426	1	23.890015	30.517499	25.702894
427	1	27.671402	12.245755	14.155433
428	1	22.944590	28.532517	26.808131
429	1	18.687183	13.140403	29.708483
430	1	30.563581	16.649613	1.636088
431	1	30.712291	19.488382	4.878193
432	1	31.751580	22.005102	8.316962
433	1	23.704483	31.906066	30.065537
434	1	21.698249	15.012267	10.342978
435	1	5.057488	13.029901	30.845525
436	1	29.373585	24.743142	24.405181
437	1	30.550474	12.380130	0.332116
438	1	15.234142	19.123128	8.505399
439	1	25.318911	9.367249	19.886483
440	1	11.632534	5.711960	21.282483
441	1	30.352238	9.626822	29.543259
442	1	24.950745	16.415587	6.040138
443	1	4.470527	25.880277	25.815720
444	1	31.074451	17.935600	26.363057
445	1	31.612031	19.653280	9.119538
446	1	13.603556	24.580118	7.879122
447	1	22.192134	19.524470	31.916649
448	1	19.685845	1.947845	22.294347
449	1	25.403792	23.231030	16.024987
450	1	5.107200	4.389816	12.014625
451	1	2.626707	19.657696	15.929796
452	1	23.510835	20.717910	19.170178
453	1	23.961457	19.688348	11.046382
454	1	12.364071	14.811918	30.081665
455	1	30.422700	2.593689	9.160682
456	1	12.741423	4.181985	19.423622
457	1	13.865218	8.357494	0.649510
458	1	8.321665	6.576890	3.463941
459	1	11.147890	17.914277	13.600579
460	1	31.972438	21.464930	10.829851
461	1	15.916415	31.749842	20.856979
462	1	11.836170	22.545557	3.427363
463	1	2.800039	24.596740	18.145097
464	1	29.540694	20.298975	16.936226
465	1	26.085622	27.264886	7.303242
466	1	12.787224	17.664753	30.060284
467	1	4.539342	29.709392	17.838660
468	1	2.727897	4.849119	25.157619
469	1	19.643631	19.441654	27.366583
470	1	15.348355	4.120404	9.519742
471	1	28.688198	7.438529	9.217130
472	1	27.088208	10.072143	18.274347
473	1	2.427351	5.760128	29.466132
474	1	27.424174	22.470445	7.784875
475	1	17.698750	11.055944	22.407714
476	1	29.573066	30.268889	9.784667
477	1	3.441764	12.141604	5.530830
478	1	20.508286	25.929858	28.542239
479	1	9.124688	21.270789	17.888248
480	1	17.354700	25.742039	19.262570
481	1	14.757409	10.570992	22.158244
482	1	13.204132	3.457188	2.755684
483	1	29.826253	16.823932	12.858417
484	1	24.347716	7.626997	7.199513
485	1	32.012710	28.434023	12.920400
486	1	16.838998	19.914205	18.433179
487	1	6.955814	21.459615	10.600489
488	1	5.001383	23.921937	24.051277
489	1	30.980925	23.191936	1.766830
490	1	28.474618	17.155867	10.723921
491	1	10.732376	12.576357	4.115243
492	1	2.605663	19.926910	28.417090
493	1	4.108249	26.539550	20.844395
494	1	23.343647	8.416115	19.087249
495	1	6.899544	30.832145	8.865236
496	1	5.231901	10.541997	30.816208
497	1	9.615366	2.648356	2.758866
498	1	12.481080	9.834097	12.387658
499	1	10.774399	22.263135	14.369532
500	1	11.989496	23.133747	12.666737
501	1	20.996115	31.854126	12.256541
502	1	4.189836	3.206552	21.500657
503	1	17.416421	16.492268	11.895302
504	1	11.345013	15.018527	5.102101
505	1	29.531611	15.921742	8.739743
506	1	0.322390	13.077710	7.759954
507	1	10.331511	27.365109	16.364552
508	1	2.065892	25.133136	29.954284
509	1	5.791373	18.084191	22.531675
510	1	20.094622	11.534747	17.613199
511	1	4.229332	23.129934	19.592811
512	1	19.533414	6.238816	6.691148
513	1	14.524007	6.670877	11.451562
514	1	16.545598	5.307836	17.346053
515	1	23.478521	19.834981	2.487541
516	1	12.142026	12.190928	13.339051
517	1	26.501197	22.302074	31.489058
518	1	5.437066	31.746526	26.281802
519	1	30.479809	8.411042	32.094644
520	1	20.804718	4.203508	23.361299
521	1	7.130117	20.507195	26.224786
522	1	27.894801	21.779708	18.285113
523	1	3.338702	9.277418	22.958015
524	1	15.403091	6.612190	31.122087
525	1	3.881735	9.740885	27.667695
526	1	23.229070	9.478859	6.834578
527	1	31.565986	26.500097	20.818292
528	1	23.921095	2.548976	29.516967
529	1	17.192660	3.680459	19.212196
530	1	28.770431	5.167781	2.645515
531	1	28.849887	27.985639	27.048313
532	1	2.342953	13.593594	1.877411
533	1	26.295699	9.170314	8.309314
534	1	3.175574	31.524584	27.424065
535	1	6.042692	23.383931	15.108204
536	1	26.930752	28.507153	23.072242
537	1	19.869919	7.577435	1.445339
538	1	23.544634	27.738145	16.049633
539	1	17.288693	10.050047	4.150766
540	1	31.839105	8.621180	25.621357
541	1	3.666047	28.109651	24.688960
542	1	29.471426	7.417264	15.638564
543	1	15.097976	20.318491	28.753987
544	1	23.479152	22.289880	30.695966
545	1	27.422399	19.391072	10.509364
546	1	2.753615	21.115269	-1.147935
547	1	2.698534	22.933244	23.019646
548	1	25.190562	18.653779	19.606197
549	1	21.041566	12.008270	28.205129
550	1	16.336428	24.808309	16.028683
551	1	8.575176	18.716825	30.678918
552	1	26.280131	21.128384	20.042013
553	1	5.655715	13.933245	21.463168
554	1	6.664350	7.954224	17.805749
555	1	6.960141	2.430706	3.168262
556	1	29.715427	19.686889	27.953853
557	1	6.319193	9.003313	23.919406
558	1	2.702830	8.536045	25.688784
559	1	10.037638	31.509744	17.090460
560	1	20.351263	14.392876	19.886876
561	1	25.653770	31.076524	3.990125
562	1	4.913377	30.800114	20.010965
563	1	1.887870	26.621964	4.906310
564	1	27.498340	29.001176	6.331591
565	1	13.439669	15.970980	2.106564
566	1	9.163210	26.658266	2.634679
567	1	31.023452	13.835999	4.404680
568	1	12.231939	30.262630	13.275986
569	1	5.749320	27.809817	32.031073
570	1	24.992079	10.066190	27.257222
571	1	30.841789	21.572864	29.483919
572	1	29.365141	17.629154	17.019450
573	1	22.601398	15.110281	20.387363
574	1	10.688932	1.017968	28.628270
575	1	29.510226	26.251058	16.874634
576	1	22.615122	20.324523	16.640174
577	1	13.052784	20.139995	7.123589
578	1	17.447887	25.474063	8.121527
579	1	27.984346	2.946395	10.120045
580	1	2.911853	31.482224	11.034252
581	1	21.604850	18.715485	11.800365
582	1	15.438974	1.222771	6.491409
583	1	25.160030	23.360679	8.494498
584	1	27.620827	20.976629	25.274688
585	1	1.267946	2.877041	7.882129
586	1	0.832153	5.253145	11.692581
587	1	29.602673	27.246389	12.846677
588	1	6.238696	6.588124	12.627991
589	1	14.162298	2.499136	31.756380
590	1	4.726318	21.005727	14.561898
591	1	31.166645	3.226719	32.085557
592	1	20.073081	10.681379	26.188976
593	1	30.629128	5.736005	4.941442
594	1	21.879231	0.703657	9.960539
595	1	0.957200	3.201113	26.184321
596	1	3.791537	11.679024	0.904074
597	1	3.817516	14.845775	9.212239
598	1	26.253447	25.644791	19.541085
599	1	7.372027	30.181547	27.080080
600	1	23.028370	21.906042	1.434784
601	1	17.973752	6.451058	22.225548
602	1	4.285060	16.168783	21.776448
603	1	20.007146	3.072634	16.071481
604	1	2.457032	8.997587	10.235299
605	1	27.372634	15.642137	12.541634
606	1	14.783905	13.480012	30.612611
607	1	10.262052	4.166499	26.665828
608	1	26.425388	18.965640	5.736660
609	1	9.678143	9.630019	0.877952
610	1	25.572193	8.812710	14.328144
611	1	6.353083	31.996624	11.029586
612	1	23.299289	17.541439	1.696619
613	1	22.368153	12.603762	20.625560
614	1	21.658888	29.041195	15.270660
615	1	13.190789	16.629961	19.064912
616	1	11.950598	31.483580	21.985391
617	1	30.199528	12.882329	24.768594
618	1	23.863028	11.210557	4.941369
619	1	17.784768	22.732253	15.280342
620	1	22.319457	6.452302	8.411830
621	1	4.603411	31.698195	8.914876
622	1	20.347268	4.021695	13.678971
623	1	21.486959	15.409430	5.190185
624	1	5.944079	6.420417	2.013154
625	1	2.573419	17.539776	5.944513
626	1	26.281396	13.675546	27.332348
627	1	8.179287	22.558379	1.069776
628	1	23.723694	25.579693	4.105577
629	1	24.183534	19.963096	4.758319
630	1	31.205703	11.762996	9.615628
631	1	30.928735	16.109018	15.281195
632	1	28.685058	8.727937	6.977924
633	1	21.226875	21.172473	28.594962
634	1	17.758066	10.359026	8.427876
635	1	12.180221	15.182505	20.786322
636	1	20.500685	15.170662	25.416744
637	1	14.979775	9.225510	7.779665
638	1	6.997531	28.370608	9.208361
639	1	18.060957	6.102341	2.584197
640	1	24.568944	16.987081	8.615444
641	1	6.455276	0.549051	30.599555
642	1	10.521575	8.207747	13.018850
643	1	8.774908	31.540353	7.287328
644	1	8.124115	11.732914	20.533086
645	1	14.279058	11.642964	26.359974
646	1	22.487837	21.670391	23.383854
647	1	14.240668	22.565567	11.863412
648	1	2.137850	18.358733	26.604347
649	1	5.747021	16.489387	28.319103
650	1	27.075620	6.025153	0.526926
651	1	23.740855	8.669931	4.337389
652	1	4.411173	16.295688	17.303840
653	1	21.979138	29.239448	17.840038
654	1	22.298770	19.391802	27.143944
655	1	16.386672	21.348168	24.597027
656	1	4.565973	23.778945	1.389331
657	1	25.980743	17.302956	14.151837
658	1	16.624307	14.139105	14.096796
659	1	1.614925	11.801884	16.392861
660	1	26.635318	4.420231	5.571023
661	1	31.117266	14.233696	22.692300
662	1	3.221916	30.691814	6.333248
663	1	16.243282	16.699825	26.762646
664	1	18.122412	26.505032	6.002810
665	1	1.604631	20.361140	1.087407
666	1	3.884182	13.398904	23.151617
667	1	2.429353	1.446035	5.899353
668	1	9.658692	30.398403	22.521506
669	1	11.391030	22.385338	19.310820
670	1	9.831459	13.330675	13.995724
671	1	17.063687	29.768266	29.558593
672	1	29.319202	12.411760	16.044581
673	1	26.820115	0.767876	9.351825
674	1	27.765485	5.779292	20.337319
675	1	21.787317	23.725153	32.126687
676	1	14.032912	28.406547	12.658006
677	1	5.358715	30.985423	28.831959
678	1	15.044071	18.825944	30.888814
679	1	26.650016	7.580307	18.321820
680	1	14.648187	17.625386	25.029368
681	1	8.870585	8.342142	19.193052
682	1	2.890820	29.210214	4.158145
683	1	30.445399	5.041400	26.700784
684	1	3.529566	17.130385	15.046402
685	1	17.291382	29.794151	22.344829
686	1	8.772851	0.334135	12.540736
687	1	31.945924	1.016037	18.479908
688	1	21.268782	23.292118	2.916907
689	1	18.520774	12.556475	12.557098
690	1	13.235474	0.770987	14.564077
691	1	30.699679	6.425674	10.574421
692	1	24.096199	22.055574	12.072692
693	1	31.460554	13.384235	17.254689
694	1	15.293359	31.834708	26.260210
695	1	10.790359	22.778391	16.785536
696	1	5.779662	30.668244	15.573649
697	1	0.353681	17.729959	12.785624
698	1	22.846590	30.094304	23.320592
699	1	9.225992	29.727019	8.873867
700	1	6.595004	20.137488	23.678098
701	1	27.618838	30.716666	11.624630
702	1	12.384705	17.136223	4.059600
703	1	21.452756	4.195201	6.990291
704	1	30.011408	17.668055	23.614421
705	1	16.764870	10.935394	11.227786
706	1	22.777289	30.963809	14.028855
707	1	25.262039	27.065528	27.053097
708	1	3.256979	29.582193	29.247149
709	1	1.205054	19.272127	21.384114
710	1	5.886303	14.288059	26.786772
711	1	3.890912	24.333602	28.156521
712	1	20.035237	30.921319	14.398948
713	1	3.945759	2.470876	8.107928
714	1	0.530049	21.661188	24.391217
715	1	1.602319	23.166609	9.767203
716	1	5.309918	28.176438	29.626545
717	1	23.730458	25.418384	19.800454
718	1	5.493302	6.131353	10.167705
719	1	21.688377	20.712751	3.856338
720	1	6.752473	21.121516	5.047002
721	1	18.276013	24.445755	27.830111
722	1	9.932765	15.384894	7.188355
723	1	4.948587	16.707413	5.915176
724	1	18.462441	21.370599	17.214001
725	1	2.537911	7.945532	14.597311
726	1	21.219127	24.321221	15.841210
727	1	7.926058	31.326968	0.658189
728	1	14.240954	29.476570	26.581089
729	1	31.151374	30.505150	19.113082
730	1	30.194196	9.050591	13.808821
731	1	28.842746	18.069510	21.286351
732	1	1.539417	15.571190	15.921718
733	1	24.734205	2.868046	22.567363
734	1	6.726388	27.835666	11.917673
735	1	22.256361	10.349556	17.232252
736	1	26.605888	1.141906	11.946210
737	1	26.768806	8.310542	10.708472
738	1	11.933574	22.147553	8.334299
739	1	25.996948	10.660184	10.390414
740	1	16.948961	2.756559	4.714224
741	1	11.782454	16.348419	32.024775
742	1	25.046031	5.273694	23.010542
743	1	31.375466	29.023735	26.688167
744	1	4.912375	5.733463	21.523929
745	1	7.442765	16.007282	6.593697
746	1	19.887384	17.086047	15.748489
747	1	27.918630	13.947035	19.750107
748	1	15.511800	20.881169	6.616896
749	1	8.503536	22.710313	6.019178
750	1	10.128296	11.808098	22.422849
751	1	11.900885	29.235891	31.197770
752	1	16.440530	7.549775	3.956920
753	1	27.110858	26.192886	1.580767
754	1	11.020025	4.202070	17.249617
755	1	28.876983	0.492086	8.284702
756	1	21.726177	27.902673	10.672607
757	1	0.522240	3.728779	5.395194
758	1	18.736242	12.679705	27.141455
759	1	6.039172	22.872421	31.493206
760	1	12.172348	24.816221	24.511806
761	1	2.642689	20.597296	23.211548
762	1	3.683927	18.128730	1.523003
763	1	28.240255	26.936557	14.956038
764	1	10.114999	27.326863	13.733816
765	1	30.204936	11.480425	13.847135
766	1	27.188988	13.841316	2.159425
767	1	11.672368	29.282524	20.948177
768	1	12.597484	30.823942	16.128071
769	1	15.441155	21.280117	31.275620
770	1	10.951022	4.740872	24.272354
771	1	14.678956	26.488506	31.107829
772	1	28.385207	7.689766	1.558070
773	1	31.258570	0.315563	8.874193
774	1	6.602528	22.081833	7.943680
775	1	31.444114	22.133300	5.821448
776	1	29.851965	2.912058	2.191291
777	1	25.233011	12.092115	29.220117
778	1	8.446218	23.551897	14.280976
779	1	17.684330	29.570373	14.153656
780	1	12.588794	25.095486	31.950589
781	1	21.252258	14.781524	15.632994
782	1	19.063169	-0.375493	23.557496
783	1	1.237546	3.367007	17.640775
784	1	17.705441	3.782101	2.667411
785	1	15.762168	4.494477	15.241785
786	1	10.069925	27.882001	22.435107
787	1	10.943060	26.947275	24.775012
788	1	26.350368	27.099940	9.928067
789	1	12.984807	13.072674	15.810131
790	1	17.120862	17.280369	31.321388
791	1	17.252772	8.716056	17.626897
792	1	26.551953	11.557267	1.496080
793	1	5.595531	25.060099	3.758270
794	1	23.114546	28.012528	3.965955
795	1	21.516304	28.037787	24.717333
796	1	24.392003	26.675649	2.066831
797	1	23.689807	8.635760	1.654907
798	1	14.411497	32.042349	12.302524
799	1	1.629820	18.105362	8.680280
800	1	12.902773	21.688061	17.349593
801	1	28.076717	15.552753	26.921522
802	1	23.512098	21.354279	8.904510
803	1	23.745932	31.892672	5.774579
804	1	19.968608	17.290460	4.235719
805	1	9.038591	18.331085	25.338602
806	1	31.770463	27.714107	1.251894
807	1	0.324754	5.222175	21.432491
808	1	2.865903	12.031001	13.359106
809	1	28.426548	14.371525	4.370912
810	1	15.283168	25.009639	5.493410
811	1	1.205923	8.198321	7.383345
812	1	26.412487	1.141774	23.171278
813	1	27.912841	30.879487	23.960190
814	1	13.147413	4.228089	8.153902
815	1	20.406147	16.349850	21.407783
816	1	30.020685	22.324312	12.062935
817	1	14.131277	7.465990	25.006586
818	1	8.615214	3.373289	9.308143
819	1	10.203476	13.571282	20.603501
820	1	6.497047	9.587496	19.831385
821	1	9.946405	20.251281	13.317826
822	1	16.302556	11.675865	13.595917
823	1	27.402770	16.689237	5.171502
824	1	28.850442	18.384948	6.240640
825	1	21.872254	31.343571	16.354812
826	1	10.475866	25.411160	22.333809
827	1	24.925212	15.492215	23.824012
828	1	31.898703	23.527296	26.148314
829	1	13.066921	11.166427	3.689058