ITEM: TIMESTEP
0
ITEM: NUMBER OF ATOMS
2000
ITEM: BOX BOUNDS pp pp pp
0.299875	32.130125
0.299875	32.130125
0.299875	32.130125
ITEM: ATOMS id type x y z
1	1	8.079855	21.769423	22.157606
2	1	25.708658	0.662946	28.743491
3	1	19.933426	11.682247	8.363391
4	1	16.140890	26.450478	11.928069
5	1	23.437436	19.811192	24.683317
6	1	3.811932	19.132844	21.338932
7	1	22.817130	23.684196	25.426094
8	1	9.611286	18.571238	18.018788
9	1	15.059774	16.958664	17.023824
10	1	21.797954	3.695287	31.144827
11	1	19.485714	18.772389	8.040798
12	1	6.582988	4.747745	31.825858
13	1	22.355248	11.932814	24.169684
14	1	4.066791	6.534616	5.485464
15	1	3.425035	30.680474	25.080903
16	1	26.008511	19.607130	24.084792
17	1	7.367231	26.494530	30.379583
18	1	15.529905	29.564388	6.343917
19	1	27.915158	18.335886	12.936414
20	1	2.980426	24.696137	8.588856
21	1	31.709166	15.296589	12.538660
22	1	23.538645	28.651073	13.442583
23	1	8.853272	29.340850	17.447343
24	1	20.559628	31.559699	18.507902
25	1	16.631323	29.366088	16.599183
26	1	23.223734	17.285249	28.133595
27	1	30.329250	28.668345	5.174261
28	1	24.309910	26.331551	14.229783
29	1	9.085197	29.004525	20.148301
30	1	17.977016	26.916916	16.308194
31	1	27.899369	3.007003	12.650847
32	1	25.705020	1.325222	31.275859
33	1	21.310872	3.793662	19.334057
34	1	26.180981	20.546068	3.535082
35	1	24.792771	13.025995	24.481156
36	1	5.870302	0.642245	1.564893
37	1	22.031859	18.889791	22.980297
38	1	18.124866	31.816979	1.130093
39	1	25.501912	17.549552	25.547585
40	1	23.661203	18.378998	17.710283
41	1	28.894274	0.591451	21.994283
42	1	17.271075	18.722537	6.750963
43	1	8.435527	26.563506	23.752832
44	1	24.252347	21.460400	14.890361
45	1	22.754577	16.137398	22.763347
46	1	16.250959	27.408663	4.868704
47	1	21.519934	19.236375	18.782209
48	1	16.963397	14.942152	16.465199
49	1	21.546313	9.553741	0.703568
50	1	25.097962	10.281261	2.877090
51	1	10.977287	28.205644	3.648740
52	1	1.375438	7.400793	19.425190
53	1	5.528159	8.379389	26.112457
54	1	5.934652	3.710882	9.691333
55	1	12.389749	16.369600	25.375104
56	1	26.257273	1.740605	20.673880
57	1	15.124651	14.341990	9.026946
58	1	18.771569	15.181788	23.580432
59	1	11.134081	22.348673	25.656860
60	1	21.071633	18.395622	2.199410
61	1	11.591739	17.602515	6.567778
62	1	9.124806	9.057982	15.079016
63	1	13.790544	28.228602	24.510404
64	1	5.129582	4.469686	19.376530
65	1	8.683099	13.281465	2.323421
66	1	24.593558	25.637019	8.763724
67	1	25.089020	6.511472	5.062840
68	1	30.057721	25.703121	8.422311
69	1	25.452717	31.151872	10.857771
70	1	19.039193	3.539029	11.360891
71	1	22.195458	25.475367	21.636895
72	1	4.610021	14.099285	1.203961
73	1	22.215803	2.373486	22.525963
74	1	2.312657	21.549514	14.372954
75	1	30.551398	2.874126	22.177210
76	1	24.007728	18.529804	6.746949
77	1	23.444624	8.459018	31.022502
78	1	23.075244	22.739594	16.948160
79	1	12.114288	24.432528	20.585371
80	1	1.000924	28.598627	15.425220
81	1	7.282428	19.563800	18.379587
82	1	0.801795	20.126972	30.334381
83	1	24.147072	11.266916	19.024049
84	1	10.550504	30.242245	10.983460
85	1	28.877611	30.637394	19.757291
86	1	13.037262	13.494537	2.990167
87	1	30.661514	6.969142	2.704116
88	1	23.374361	4.199980	1.716046
89	1	15.829314	17.655044	29.034352
90	1	14.421368	2.351625	4.655291
91	1	2.796815	3.247655	30.151035
92	1	0.805989	28.832921	20.056172
93	1	14.774008	15.664972	21.041414
94	1	7.922174	30.044173	11.024862
95	1	19.321111	14.658293	11.506251
96	1	1.281098	19.114345	11.085068
97	1	6.046761	18.606426	30.008193
98	1	10.077624	5.443617	10.006082
99	1	6.363780	30.070969	2.290029
100	1	19.482769	17.752383	13.070881
101	1	19.189718	11.826468	31.900054
102	1	21.308811	16.861001	31.946225
103	1	7.951287	18.970663	3.641382
104	1	7.076187	16.421276	26.144047
105	1	6.934792	25.068682	25.116323
106	1	20.021821	18.860494	21.447050
107	1	25.510416	4.127671	20.516306
108	1	22.547148	20.888375	13.180521
109	1	5.533050	23.472461	26.420701
110	1	4.854112	20.800958	12.015943
111	1	16.329896	3.390005	28.156979
112	1	13.484216	4.045486	24.800795
113	1	20.301138	1.576329	0.451114
114	1	19.999521	5.458036	30.411717
115	1	7.154140	11.852350	29.960938
116	1	10.616710	17.246889	23.635401
117	1	6.589836	7.791342	8.862397
118	1	20.830546	17.175594	27.167505
119	1	5.256024	29.329250	7.696672
120	1	30.293729	20.245257	7.214812
121	1	20.214479	8.727770	13.069579
122	1	23.324053	30.346152	3.511777
123	1	1.213033	15.609767	8.380704
124	1	2.965283	29.463469	8.415739
125	1	8.303468	16.210727	23.837626
126	1	1.022044	4.759837	31.488749
127	1	9.603855	4.533725	22.401574
128	1	0.627061	8.693005	3.176612
129	1	3.263390	0.429847	29.986165
130	1	23.568973	4.586533	18.793161
131	1	28.755285	5.332773	6.614904
132	1	19.529284	29.523379	19.572597
133	1	31.929723	4.604152	9.438487
134	1	3.662481	11.222213	10.796507
135	1	17.340199	5.159394	26.353192
136	1	2.159112	3.552377	15.315073
137	1	6.936734	15.767665	12.005782
138	1	12.071685	9.861869	31.658716
139	1	13.957813	0.717488	22.242307
140	1	26.792125	12.609304	9.400005
141	1	16.612786	4.642462	0.501784
142	1	31.995008	7.746437	15.162580
143	1	1.893408	26.542933	16.693286
144	1	27.442504	9.684272	2.953510
145	1	9.404513	24.113655	2.612685
146	1	6.683738	27.408232	2.847964
147	1	13.814911	18.271555	20.739064
148	1	6.220006	13.858129	9.944728
149	1	16.331958	6.172337	13.269337
150	1	16.746420	29.728805	27.107100
151	1	27.938606	7.586025	13.613286
152	1	7.465389	8.888829	13.248478
153	1	21.126132	11.061454	30.552691
154	1	29.041690	29.720042	21.998332
155	1	24.645182	15.583389	12.854263
156	1	6.526014	21.435931	16.645686
157	1	8.829373	26.176296	26.238320
158	1	21.118784	5.748652	3.024722
159	1	28.283299	12.860378	32.050605
160	1	27.892624	16.241799	2.721168
161	1	31.799085	18.731777	16.835595
162	1	31.456395	1.500124	4.400193
163	1	28.046886	21.160900	12.415534
164	1	10.337238	29.565970	15.346807
165	1	3.660472	23.231515	30.725491
166	1	4.331697	28.694864	2.098873
167	1	22.087688	9.908497	11.656734
168	1	19.182186	4.624094	18.057245
169	1	11.982265	17.884921	17.456704
170	1	6.368007	26.073136	16.528180
171	1	27.984512	29.759111	31.257676
172	1	14.351560	11.532284	11.870930
173	1	8.425930	15.240177	14.044758
174	1	3.124514	24.857519	3.205951
175	1	8.985531	5.892573	25.347502
176	1	27.068156	24.270149	23.086125
177	1	14.411112	15.351437	28.638266
178	1	21.934191	15.790089	29.727992
179	1	25.397827	11.313836	14.488438
180	1	21.818423	24.664423	4.976933
181	1	25.848513	7.698256	2.962636
182	1	16.319314	10.951250	6.432723
183	1	29.663573	25.231684	1.376944
184	1	23.115080	10.657524	29.089526
185	1	20.362859	26.606600	22.780192
186	1	4.258221	12.918956	3.357608
187	1	4.284624	16.454634	26.246455
188	1	5.837514	12.887230	24.568491
189	1	2.368543	27.265245	2.361637
190	1	9.317035	6.052264	27.860194
191	1	12.984306	7.600120	6.261933
192	1	26.851317	16.585348	20.143241
193	1	9.899858	10.264811	7.711191
194	1	18.008598	7.874806	14.406070
195	1	17.097045	14.556377	5.458562
196	1	31.240434	10.853871	4.195417
197	1	14.928926	30.843050	28.760630
198	1	26.719878	2.840978	29.503388
199	1	19.203613	9.105453	18.716981
200	1	24.457660	17.956235	23.051094
201	1	12.210317	15.604897	27.704656
202	1	16.323244	25.257105	29.477355
203	1	26.633468	31.948973	16.445794
204	1	17.988114	29.577884	9.692935
205	1	9.199151	0.301533	30.510769
206	1	16.331398	1.670968	8.691468
207	1	30.711409	0.602347	28.759848
208	1	17.580602	15.348099	9.498973
209	1	5.842310	11.928133	16.193208
210	1	21.481239	12.033409	15.543184
211	1	28.724692	25.937212	10.704277
212	1	23.758121	15.590517	3.751124
213	1	9.080842	17.682776	7.628218
214	1	14.120772	23.781693	3.522753
215	1	1.867640	26.776208	19.315117
216	1	10.581704	25.160779	17.696075
217	1	16.683552	22.271216	11.059385
218	1	17.833131	3.371772	9.256084
219	1	17.687329	10.796383	17.518495
220	1	6.527524	18.246020	25.050333
221	1	19.799349	21.928271	21.071310
222	1	17.063186	27.482244	30.739738
223	1	29.388933	8.219232	11.503798
224	1	29.539029	21.373353	3.059687
225	1	25.139228	25.931748	29.483492
226	1	7.179683	26.105838	9.571673
227	1	17.430578	31.685336	15.413820
228	1	7.007173	20.619208	31.592107
229	1	15.091245	3.103197	17.679214
230	1	1.651229	13.746697	12.223147
231	1	8.203351	30.561229	4.820189
232	1	31.893258	12.723166	2.467785
233	1	2.928160	0.605512	0.988605
234	1	6.510508	1.350087	16.245767
235	1	15.197721	3.028245	23.060904
236	1	13.391012	17.744947	8.207036
237	1	17.938049	31.561910	17.987369
238	1	2.910433	15.683688	24.012644
239	1	6.147223	7.728549	6.533974
240	1	1.482850	22.622534	18.661579
241	1	19.152523	21.930565	10.716302
242	1	18.777874	21.758520	27.847530
243	1	14.116474	9.327452	10.373385
244	1	2.435416	11.567930	22.285427
245	1	31.198166	1.305013	12.963194
246	1	7.945684	24.485341	7.631251
247	1	14.654235	15.062629	15.413042
248	1	10.532331	13.258305	11.662860
249	1	25.808746	23.603345	29.445070
250	1	24.898480	16.083571	21.441050
251	1	12.850700	10.837157	17.301988
252	1	14.844147	15.766671	12.909927
253	1	21.470212	9.694747	4.900068
254	1	10.753355	9.086056	17.378471
255	1	2.644599	5.088555	22.707506
256	1	12.873310	25.279212	5.476856
257	1	14.026725	25.662017	15.468086
258	1	21.004372	25.946778	31.204397
259	1	4.459170	27.990090	15.768123
260	1	6.126567	29.859074	24.521333
261	1	9.688128	29.686068	31.529554
262	1	10.457263	13.813309	28.142920
263	1	21.766660	21.277586	10.724470
264	1	9.987689	8.151077	3.029702
265	1	5.531939	24.590414	8.251655
266	1	2.039066	16.264130	30.562474
267	1	2.220921	22.869473	2.110306
268	1	29.804988	5.561185	22.369791
269	1	5.138850	12.011757	28.233533
270	1	5.628297	14.353602	17.271496
271	1	12.595024	20.438559	20.735950
272	1	16.756638	9.961917	15.320234
273	1	11.815527	5.222307	28.519560
274	1	9.780615	20.271465	26.923099
275	1	4.199498	0.951484	15.333368
276	1	25.983602	4.603989	13.737399
277	1	24.924981	25.270849	24.794206
278	1	2.390698	17.603542	17.203584
279	1	27.340299	29.807259	15.784394
280	1	7.763862	10.213416	11.135516
281	1	8.672799	12.026415	32.079437
282	1	26.589612	18.984923	21.565108
283	1	27.323057	14.970869	9.964244
284	1	18.337221	25.356676	23.305980
285	1	19.604854	7.074754	17.080624
286	1	2.312158	3.089492	1.140561
287	1	30.940575	1.833252	6.858640
288	1	29.495099	14.870598	11.179933
289	1	29.640440	2.642854	14.595496
290	1	6.997948	1.923732	22.502958
291	1	5.880214	2.524501	5.549209
292	1	6.245268	31.453743	6.447066
293	1	1.715160	2.544780	3.629299
294	1	29.835325	9.226832	2.821264
295	1	9.922551	12.740159	24.954096
296	1	23.227320	14.388144	31.851847
297	1	17.426105	14.422596	25.897470
298	1	18.896431	8.713015	26.967239
299	1	18.538686	7.621054	9.186418
300	1	13.318262	27.404375	1.126928
301	1	6.133961	2.101824	25.757386
302	1	4.925237	4.205103	26.495627
303	1	8.115574	15.301181	27.981287
304	1	7.996704	6.210822	6.102209
305	1	2.647725	15.991144	1.133158
306	1	4.025131	25.184095	15.800498
307	1	1.168783	23.949079	4.628134
308	1	10.876254	18.624793	31.543511
309	1	1.235081	11.901443	0.358125
310	1	3.033758	25.374023	23.473483
311	1	27.593300	11.304754	7.106069
312	1	2.275723	15.716200	13.531929
313	1	10.675875	30.787790	3.790020
314	1	17.559691	29.591099	31.933570
315	1	21.841826	11.414140	6.586036
316	1	13.664539	11.168362	6.607741
317	1	4.365635	31.395452	12.981031
318	1	14.696197	11.836190	18.865075
319	1	13.102392	19.198817	10.155074
320	1	23.162884	31.891697	18.615121
321	1	26.947867	21.570322	22.552884
322	1	29.225517	16.574664	19.343997
323	1	29.007469	4.514815	24.545966
324	1	12.891321	29.314405	28.690201
325	1	12.035873	1.645882	20.214939
326	1	1.309737	6.808369	9.714325
327	1	12.095497	8.978697	24.857643
328	1	28.564309	27.741223	8.606674
329	1	19.295106	14.916546	4.165034
330	1	29.145286	8.640181	17.952522
331	1	7.182839	23.120586	3.455953
332	1	4.656157	10.317354	3.170664
333	1	10.911553	17.856945	27.182805
334	1	1.844747	30.176192	21.771801
335	1	7.544019	28.687577	22.691954
336	1	29.023424	15.566719	6.507268
337	1	12.363795	2.649106	29.689018
338	1	20.634947	11.288488	22.278519
339	1	7.676741	29.234319	6.867345
340	1	25.890700	24.551132	10.771977
341	1	10.943168	14.097627	9.340915
342	1	24.384676	1.358057	10.083027
343	1	29.442538	0.608095	2.991053
344	1	17.484449	17.923455	9.349353
345	1	11.448526	20.566833	1.633971
346	1	7.437776	16.484766	30.214534
347	1	27.443425	20.111498	27.733037
348	1	28.341797	16.622897	14.964107
349	1	7.024746	2.870806	29.899028
350	1	16.879915	31.708912	12.734855
351	1	22.605579	7.872498	21.522012
352	1	1.859899	30.750207	31.316289
353	1	8.166680	16.053407	2.520998
354	1	22.496995	10.304826	26.432614
355	1	17.890166	2.291777	0.499375
356	1	20.921361	13.445472	13.501386
357	1	17.734388	8.634088	2.058383
358	1	21.630674	12.321470	1.257773
359	1	15.989867	29.769129	24.636843
360	1	2.845939	3.989515	27.658481
361	1	10.669510	26.541247	5.376261
362	1	25.432500	2.564266	27.198421
363	1	24.634265	9.865580	12.310893
364	1	17.344845	25.683842	25.590931
365	1	27.799482	25.244684	3.894730
366	1	28.771233	10.200481	4.989501
367	1	28.396270	19.611591	23.274765
368	1	27.595622	20.567343	1.293606
369	1	2.505099	2.002148	19.469106
370	1	27.642986	3.417924	19.083652
371	1	25.171580	24.430796	27.010204
372	1	6.457022	9.517645	15.539044
373	1	29.213520	0.641640	5.533343
374	1	25.653068	24.655858	0.411057
375	1	19.294748	16.338530	30.568953
376	1	27.970912	1.526029	27.586413
377	1	5.726013	18.739500	13.774955
378	1	7.309570	2.404392	11.389217
379	1	3.115863	0.443814	21.385279
380	1	11.801903	4.906063	30.955665
381	1	16.838765	27.199219	9.737953
382	1	5.688743	15.193116	7.885475
383	1	3.358117	28.771686	19.993259
384	1	20.589412	6.512685	22.182796
385	1	30.636223	24.237615	21.024005
386	1	25.611539	28.795531	11.747137
387	1	15.183439	5.207229	19.402878
388	1	22.585781	25.933267	24.063291
389	1	6.796601	30.361049	13.065957
390	1	29.329018	4.867076	9.057410
391	1	18.073583	23.190505	8.742724
392	1	21.281019	8.046721	26.175085
393	1	14.030610	25.675214	19.877602
394	1	26.199442	25.322806	15.185464
395	1	16.715012	1.325232	19.079128
396	1	21.029600	5.090959	11.656357
397	1	4.177786	27.344489	11.888038
398	1	6.464491	3.917258	16.012726
399	1	20.734823	4.603182	25.708125
400	1	21.070671	29.294231	12.771047
401	1	23.051793	11.760906	13.016214
402	1	29.848700	29.883129	12.393457
403	1	18.270634	12.582407	10.046762
404	1	13.716621	3.036266	15.592891
405	1	21.716431	28.404188	7.709913
406	1	16.034455	16.436744	1.768189
407	1	3.604509	13.864778	25.647097
408	1	17.410093	3.922155	13.279149
409	1	26.856701	11.154426	30.810735
410	1	9.417568	4.679807	32.009342
411	1	8.303206	17.586520	19.910243
412	1	4.519591	16.808640	12.605066
413	1	16.447489	2.785311	30.472172
414	1	10.618502	23.921244	4.868453
415	1	0.657154	15.440483	2.758516
416	1	20.958170	25.704895	11.130205
417	1	24.105017	11.908881	16.508785
418	1	7.853819	19.787386	8.649374
419	1	15.315555	7.536715	18.446055
420	1	22.825109	14.393266	24.807370
421	1	14.670698	25.122256	1.506761
422	1	9.691488	31.148478	26.719597
423	1	24.642309	14.498426	17.123723
424	1	31.351962	7.401615	17.466862
425	1	28.115734	28.377826	11.058340
426	1	23.907353	30.523661	25.694099
427	1	27.671350	12.237640	14.171861
428	1	22.970516	28.541258	26.799244
429	1	18.656110	13.129818	29.703032
430	1	30.546825	16.660291	1.634388
431	1	30.723959	19.476923	4.874539
432	1	31.790225	21.974214	8.318401
433	1	23.719028	31.908777	30.071010
434	1	21.718725	15.054386	10.324929
435	1	5.033130	13.028496	30.841902
436	1	29.381320	24.776387	24.431052
437	1	30.526222	12.386804	0.327938
438	1	15.247153	19.106028	8.506069
439	1	25.344402	9.371720	19.878037
440	1	11.610447	5.701671	21.321284
441	1	30.340042	9.650696	29.596122
442	1	24.958851	16.402540	6.048444
443	1	4.463317	25.899392	25.775535
444	1	31.075847	17.962245	26.311222
445	1	31.650302	19.602489	9.101261
446	1	13.619944	24.553732	7.879879
447	1	22.228227	19.343244	31.991173
448	1	19.671227	1.932570	22.332102
449	1	25.422371	23.219385	16.090645
450	1	5.126756	4.375899	12.041440
451	1	2.484388	19.621067	15.911789
452	1	23.531216	20.730267	19.193475
453	1	23.977816	19.704022	11.054362
454	1	12.347139	14.801562	30.081992
455	1	30.429470	2.598386	9.162672
456	1	12.730114	4.184588	19.457852
457	1	13.833775	8.319700	0.675282
458	1	8.355724	6.471416	3.441467
459	1	11.163772	17.899501	13.611899
460	1	32.058299	21.403792	10.806495
461	1	15.919144	31.759693	20.847453
462	1	11.843212	22.535761	3.416512
463	1	2.838049	24.625009	18.130235
464	1	29.528412	20.307491	16.940145
465	1	26.058413	27.265904	7.310272
466	1	12.769202	17.656123	30.068191
467	1	4.554287	29.739601	17.807858
468	1	2.725608	4.855868	25.175394
469	1	19.624116	19.420711	27.370170
470	1	15.346567	4.045935	9.559786
471	1	28.700824	7.430186	9.207693
472	1	27.108091	10.084064	18.278345
473	1	2.417012	5.756216	29.491596
474	1	27.451649	22.476301	7.844232
475	1	17.659842	11.019264	22.374090
476	1	29.528474	30.265869	9.822173
477	1	3.437218	12.072934	5.542719
478	1	20.530514	25.928325	28.549961
479	1	9.137547	21.272959	17.896200
480	1	17.378270	25.745036	19.246740
481	1	14.818160	10.557471	22.087471
482	1	13.153181	3.591427	2.905330
483	1	29.839428	16.793927	12.865404
484	1	24.336591	7.622216	7.210960
485	1	31.983027	28.420545	12.926696
486	1	16.864281	19.901387	18.419246
487	1	6.979762	21.437710	10.604032
488	1	4.978541	23.931948	24.015755
489	1	30.976280	23.165708	1.770982
490	1	28.489733	17.129468	10.720782
491	1	10.743000	12.581293	4.123938
492	1	2.586039	19.952760	28.405966
493	1	4.101441	26.527589	20.790269
494	1	23.341117	8.440437	19.117914
495	1	6.912439	30.839002	8.855054
496	1	5.226053	10.548087	30.841156
497	1	9.652080	2.359333	2.744806
498	1	12.497301	9.799738	12.427586
499	1	10.795625	22.242998	14.370343
500	1	12.003179	23.124609	12.667489
501	1	20.968060	31.905538	12.249167
502	1	4.182505	3.222192	21.511601
503	1	17.430139	16.507961	11.897275
504	1	11.351152	14.998874	5.108495
505	1	29.545440	15.891114	8.740461
506	1	0.323329	13.055984	7.769493
507	1	10.324176	27.353874	16.350541
508	1	2.058198	25.143709	29.962204
509	1	5.781323	18.100800	22.531380
510	1	20.053196	11.635669	17.645904
511	1	4.214606	23.137026	19.562933
512	1	19.567608	6.242106	6.678285
513	1	14.575435	6.656174	11.475128
514	1	16.528104	5.421076	17.406386
515	1	23.567256	19.749169	2.462320
516	1	12.150983	12.167744	13.361904
517	1	26.749618	22.314068	31.452212
518	1	5.444960	31.732842	26.292456
519	1	30.479527	8.409932	32.103290
520	1	20.807471	4.204328	23.381337
521	1	7.081567	20.533122	26.223977
522	1	27.798363	21.826984	18.273379
523	1	3.348655	9.299250	22.954860
524	1	15.380845	6.597390	31.130275
525	1	3.857918	9.754272	27.676975
526	1	23.233772	9.472444	6.823035
527	1	31.586173	26.515491	20.806556
528	1	23.927200	2.555688	29.522352
529	1	17.187625	3.709123	19.240436
530	1	28.779049	5.161658	2.638412
531	1	28.886865	28.063094	27.038054
532	1	2.325634	13.590485	1.878906
533	1	26.282902	9.168493	8.313825
534	1	3.199806	31.530155	27.439614
535	1	6.078383	23.412535	15.095330
536	1	26.945981	28.539331	23.060976
537	1	19.859432	7.563558	1.447330
538	1	23.507931	27.782632	16.070932
539	1	17.279166	10.032380	4.147984
540	1	31.837639	8.744440	25.673605
541	1	3.660697	28.127447	24.663126
542	1	29.473786	7.407983	15.640011
543	1	15.081498	20.336333	28.743674
544	1	24.194320	22.931294	31.239165
545	1	27.453392	19.375557	10.504619
546	1	2.745172	21.145975	-1.135266
547	1	2.645829	22.949142	22.986235
548	1	25.218517	18.655458	19.600920
549	1	21.024373	12.040846	28.236830
550	1	16.336801	24.798963	16.034126
551	1	8.565476	18.714878	30.663052
552	1	26.265511	21.105156	20.063279
553	1	5.640676	13.938017	21.476555
554	1	6.661879	7.956954	17.811754
555	1	6.934137	2.477661	3.147753
556	1	29.741239	19.641610	28.011962
557	1	6.300111	9.001247	23.925413
558	1	2.698430	8.557736	25.713103
559	1	10.029320	31.505136	17.080867
560	1	20.367817	14.321993	19.885396
561	1	25.660772	31.012480	3.995968
562	1	4.937003	30.803059	19.986660
563	1	1.914800	26.580495	4.905183
564	1	27.315122	29.048372	6.296155
565	1	13.440068	15.957837	2.104489
566	1	9.223273	26.586454	2.602136
567	1	31.028151	13.827318	4.405249
568	1	12.222164	30.243631	13.275635
569	1	5.917575	27.939281	32.146566
570	1	24.967487	10.069842	27.253263
571	1	30.941593	21.539062	29.474965
572	1	29.388859	17.641633	17.020393
573	1	22.630341	15.096727	20.409595
574	1	10.656593	0.963566	28.639625
575	1	29.539454	26.391074	17.011890
576	1	22.632143	20.340692	16.661399
577	1	13.072244	20.112387	7.142463
578	1	17.444475	25.456623	8.095092
579	1	27.980836	2.950427	10.131705
580	1	2.842968	31.491580	10.840450
581	1	21.622218	18.728473	11.801240
582	1	15.447578	1.211797	6.489207
583	1	25.172653	23.348133	8.498579
584	1	27.603990	21.075667	25.178984
585	1	1.232558	2.921676	7.979402
586	1	0.835447	5.260617	11.709752
587	1	29.574358	27.247161	12.852028
588	1	6.258797	6.567731	12.638276
589	1	14.148725	2.350938	31.572958
590	1	4.752699	20.998858	14.560408
591	1	31.122566	3.211756	32.105538
592	1	20.060634	10.698719	26.216509
593	1	30.583202	5.758876	4.923690
594	1	21.860897	0.720624	9.953958
595	1	0.963229	3.210290	26.203084
596	1	3.783104	11.671581	0.919336
597	1	3.832312	14.824099	9.207881
598	1	26.224451	25.742900	19.420946
599	1	7.367557	30.161706	27.000299
600	1	23.033627	21.822809	1.448365
601	1	17.973749	6.425772	22.271249
602	1	4.261229	16.187599	21.787655
603	1	19.931098	3.191495	16.055614
604	1	2.487853	8.976613	10.216540
605	1	27.379466	15.634335	12.541995
606	1	14.768229	13.462320	30.614196
607	1	10.241576	4.178815	26.659130
608	1	26.451629	18.980744	5.730031
609	1	9.652105	9.630856	0.906785
610	1	25.579628	8.824265	14.333415
611	1	6.356392	32.014220	10.975893
612	1	23.316788	17.443889	1.710980
613	1	22.377839	12.584014	20.635015
614	1	21.630609	29.079934	15.265955
615	1	13.208850	16.603222	19.075635
616	1	11.955777	31.485056	22.009318
617	1	30.146418	12.971722	24.814815
618	1	23.856800	11.205931	4.935049
619	1	17.790896	22.723054	15.279032
620	1	22.302689	6.468532	8.410595
621	1	4.567094	31.708979	8.686909
622	1	20.225190	4.082802	13.757902
623	1	21.486011	15.389108	5.196266
624	1	5.961908	6.406972	1.984034
625	1	2.584723	17.519561	5.946743
626	1	26.230080	13.505219	27.331481
627	1	8.176443	22.529579	1.076753
628	1	23.725123	25.533880	4.055448
629	1	24.203845	19.965072	4.736535
630	1	31.207758	11.748563	9.623283
631	1	30.911276	16.028356	15.301036
632	1	28.670067	8.714415	6.970287
633	1	21.204720	21.100915	28.514316
634	1	17.772587	10.330148	8.423470
635	1	12.206319	15.153063	20.794868
636	1	20.495022	15.156479	25.412371
637	1	14.981452	9.178293	7.764832
638	1	7.012499	28.348496	9.200631
639	1	18.052644	6.077647	2.590098
640	1	24.576828	16.989320	8.617237
641	1	6.421163	0.528755	30.563802
642	1	10.510482	8.189356	13.027199
643	1	8.771029	31.519170	7.226834
644	1	8.096077	11.740754	20.545121
645	1	14.243434	11.661553	26.320043
646	1	22.526703	21.694288	23.324719
647	1	14.253560	22.551216	11.864890
648	1	2.098351	18.381163	26.597540
649	1	5.716443	16.490061	28.326226
650	1	27.068338	6.023397	0.536002
651	1	23.735311	8.664883	4.326730
652	1	4.428841	16.296240	17.318833
653	1	21.956387	29.274381	17.828968
654	1	22.333978	19.332559	27.113252
655	1	16.392630	21.341660	24.595637
656	1	4.589235	23.778878	1.378094
657	1	26.001872	17.309497	14.157760
658	1	16.627583	14.129527	14.106731
659	1	1.610987	11.810644	16.394072
660	1	26.639376	4.418347	5.596176
661	1	31.041964	14.310679	22.725897
662	1	3.556284	30.577522	6.136980
663	1	16.229398	16.675339	26.767534
664	1	18.129925	26.466830	5.981649
665	1	1.606669	20.349310	1.099014
666	1	3.849842	13.428218	23.142151
667	1	1.736560	1.588257	5.892729
668	1	9.665288	30.391057	22.527107
669	1	11.397822	22.378382	19.315502
670	1	9.853253	13.306210	14.012208
671	1	17.137690	29.750189	29.540068
672	1	29.349076	12.414319	16.054103
673	1	26.832087	0.750755	9.348913
674	1	27.763002	5.794273	20.341793
675	1	21.789229	23.673740	32.104561
676	1	14.030353	28.394694	12.660774
677	1	5.359375	30.963048	28.822709
678	1	15.013209	18.816840	30.868367
679	1	26.658375	7.591224	18.323848
680	1	14.645356	17.628381	25.045061
681	1	8.855445	8.340897	19.206160
682	1	2.879666	29.079335	4.158103
683	1	30.441656	5.076314	26.724112
684	1	3.531811	17.055847	15.054691
685	1	17.295150	29.789127	22.339660
686	1	8.776323	0.325764	12.526331
687	1	31.956774	1.043799	18.491006
688	1	21.303793	23.242418	2.872769
689	1	18.539838	12.567217	12.562632
690	1	13.230290	0.775318	14.581987
691	1	30.706899	6.434285	10.577020
692	1	24.176440	22.075647	12.112080
693	1	31.491415	13.489583	17.217782
694	1	15.322058	31.823346	26.247856
695	1	10.805002	22.774641	16.785063
696	1	5.772826	30.657694	15.540532
697	1	0.374261	17.706392	12.782349
698	1	22.854268	30.102492	23.311011
699	1	9.227503	29.717207	8.849861
700	1	6.564967	20.151309	23.669021
701	1	27.585032	30.704792	11.652839
702	1	12.388915	17.118351	4.059787
703	1	21.469700	4.182822	6.952538
704	1	30.029533	17.710693	23.604633
705	1	16.798040	10.873809	11.241267
706	1	22.744525	31.020995	14.020405
707	1	25.260187	27.085528	27.037226
708	1	3.292121	29.603879	29.295446
709	1	1.207143	19.299283	21.356424
710	1	5.851335	14.290031	26.787061
711	1	3.887538	24.346426	28.151085
712	1	20.009379	30.962899	14.396971
713	1	3.879216	2.467729	8.235807
714	1	0.489387	21.697689	24.313538
715	1	1.669328	23.127630	9.755073
716	1	5.277465	28.187359	29.709854
717	1	23.694494	25.515406	19.799942
718	1	5.538154	6.094704	10.191629
719	1	21.722063	20.700820	3.767573
720	1	6.770457	21.087015	5.044133
721	1	18.273002	24.436301	27.831214
722	1	9.939194	15.357654	7.188244
723	1	4.954778	16.672650	5.918519
724	1	18.480019	21.378222	17.217957
725	1	2.549721	7.935987	14.600737
726	1	21.259149	24.346121	15.831598
727	1	7.732360	31.038970	0.490236
728	1	14.267377	29.481063	26.575043
729	1	31.151293	30.540097	19.107484
730	1	30.198383	9.033713	13.811559
731	1	28.860530	18.100886	21.275508
732	1	1.507785	15.479986	15.952113
733	1	24.729417	2.879020	22.571350
734	1	6.699663	27.839024	11.861361
735	1	22.280145	10.408624	17.240347
736	1	26.591215	1.156666	11.940001
737	1	26.771895	8.305100	10.706884
738	1	11.947622	22.125546	8.332255
739	1	26.002081	10.655140	10.396965
740	1	16.927614	2.740127	4.693916
741	1	11.769307	16.335919	32.024361
742	1	25.037169	5.280102	23.015059
743	1	31.415143	29.066591	26.698079
744	1	4.898868	5.742747	21.533296
745	1	7.456413	15.977091	6.595840
746	1	19.937727	17.106631	15.739083
747	1	27.921671	13.915667	19.729460
748	1	15.532050	20.855347	6.619502
749	1	8.516245	22.690932	6.011015
750	1	10.088434	11.810835	22.436186
751	1	12.050002	29.521514	31.530517
752	1	16.438419	7.535430	3.959636
753	1	27.211761	26.239923	1.616593
754	1	11.028989	4.206627	17.275206
755	1	28.896136	0.473007	8.254616
756	1	21.725337	27.896600	10.765622
757	1	0.496492	3.810561	5.379311
758	1	18.717980	12.690402	27.143069
759	1	6.021412	22.856473	31.485856
760	1	12.171966	24.805137	24.507413
761	1	2.639790	20.622420	23.199890
762	1	3.674699	18.113846	1.502965
763	1	28.397565	26.421531	14.958869
764	1	10.111609	27.320320	13.722183
765	1	30.195790	11.459334	13.851834
766	1	27.198451	13.834683	2.171217
767	1	11.675989	29.288670	20.952452
768	1	12.587972	30.815770	16.126372
769	1	15.406549	21.280297	31.275755
770	1	10.952238	4.746920	24.269935
771	1	14.715677	26.515048	31.145056
772	1	28.375945	7.699683	1.546128
773	1	31.240464	0.301837	8.859686
774	1	6.616427	22.056921	7.948973
775	1	31.434186	22.123184	5.819756
776	1	29.849970	2.862578	2.244484
777	1	25.179493	12.108269	29.263645
778	1	8.474897	23.538325	14.275888
779	1	17.685443	29.585517	14.143343
780	1	12.611571	25.207769	31.949827
781	1	21.277981	14.798917	15.639089
782	1	19.070910	-0.403329	23.561663
783	1	1.249619	3.382964	17.654166
784	1	17.651182	3.741458	2.639136
785	1	15.746644	4.479427	15.274407
786	1	10.081960	27.879978	22.430951
787	1	10.966987	26.928998	24.767782
788	1	26.316727	27.086922	9.957067
789	1	12.975816	13.072248	15.824170
790	1	17.121058	17.247583	31.304554
791	1	17.422066	8.148640	17.071589
792	1	26.532865	11.558828	1.495293
793	1	5.627118	25.008795	3.729263
794	1	23.118515	27.975889	3.927367
795	1	21.522184	28.049533	24.718349
796	1	24.405061	26.639770	2.021206
797	1	23.679971	8.630030	1.651022
798	1	14.398773	31.992700	12.320141
799	1	1.649397	18.064463	8.672638
800	1	12.916939	21.679358	17.370165
801	1	27.393894	15.774593	26.870325
802	1	23.532489	21.340829	8.888899
803	1	23.741142	31.884696	5.760083
804	1	19.972570	17.262052	4.224385
805	1	9.038163	18.314850	25.343830
806	1	31.821340	27.697294	1.240103
807	1	0.321067	5.246746	21.455547
808	1	2.883431	12.020460	13.355531
809	1	28.433641	14.363034	4.384075
810	1	15.324243	24.969023	5.518591
811	1	1.309715	8.174217	7.417580
812	1	26.416734	1.155325	23.168169
813	1	27.929139	30.900704	23.961959
814	1	13.174800	4.215283	8.206456
815	1	20.427590	16.332330	21.388921
816	1	30.137941	22.173580	11.976929
817	1	14.135820	7.499784	25.020690
818	1	8.630860	3.347276	9.309360
819	1	10.199209	13.569678	20.617878
820	1	6.479718	9.591996	19.837453
821	1	9.971683	20.238686	13.314798
822	1	16.293320	11.692436	13.598263
823	1	27.418731	16.684000	5.175242
824	1	28.866337	18.381483	6.239331
825	1	21.839047	31.399815	16.342865
826	1	10.489722	25.411064	22.331974
827	1	24.926229	15.497229	23.905301
828	1	31.909039	23.566504	26.122376
829	1	13.056062	11.153846	3.692992