ITEM: TIMESTEP
0
ITEM: NUMBER OF ATOMS
2000
ITEM: BOX BOUNDS pp pp pp
0.299875	32.130125
0.299875	32.130125
0.299875	32.130125
ITEM: ATOMS id type x y z
1	1	8.063125	21.764487	22.154485
2	1	25.702031	0.661839	28.742463
3	1	19.937811	11.682914	8.367753
4	1	16.147490	26.460490	11.945385
5	1	23.419071	19.804336	24.697853
6	1	3.792361	19.135786	21.332688
7	1	22.802247	23.685826	25.452015
8	1	9.604505	18.579949	18.020728
9	1	15.047277	16.958201	17.024611
10	1	21.798006	3.698529	31.145261
11	1	19.495660	18.782689	8.065854
12	1	6.594062	4.742487	31.804477
13	1	22.346474	11.920377	24.166578
14	1	4.135697	6.550351	5.478895
15	1	3.421469	30.677134	25.067134
16	1	25.983208	19.587538	24.115902
17	1	7.362288	26.485834	30.373787
18	1	15.524606	29.535733	6.345440
19	1	27.900858	18.360655	12.934508
20	1	2.983861	24.689670	8.576478
21	1	31.697855	15.321971	12.534655
22	1	23.582951	28.698903	13.502825
23	1	8.851805	29.335193	17.439296
24	1	20.571294	31.554917	18.513512
25	1	16.658069	29.366394	16.615879
26	1	23.224014	17.279173	28.130092
27	1	30.334625	28.676687	5.154185
28	1	25.088058	25.830811	14.644900
29	1	9.072361	29.002836	20.141732
30	1	18.010233	26.906419	16.340818
31	1	27.877180	3.054608	12.620843
32	1	25.699184	1.326218	31.277197
33	1	21.308519	3.777108	19.374661
34	1	26.164584	20.542780	3.530892
35	1	24.785702	13.011651	24.472294
36	1	5.875367	0.639100	1.550517
37	1	22.016460	18.891376	22.984278
38	1	18.127120	31.824338	1.168105
39	1	25.466866	17.547990	25.569708
40	1	23.675313	18.389903	17.688751
41	1	28.885610	0.590679	21.982851
42	1	17.277832	18.731312	6.766261
43	1	8.428385	26.560533	23.744854
44	1	24.479753	21.598768	14.914952
45	1	22.732426	16.128553	22.766219
46	1	16.251014	27.394115	4.864685
47	1	21.552301	19.211390	18.710534
48	1	16.965494	14.936001	16.458302
49	1	21.544983	9.557630	0.701309
50	1	25.100424	10.283853	2.874762
51	1	10.973818	28.200649	3.648702
52	1	1.373652	7.396965	19.411665
53	1	5.536662	8.382760	26.100830
54	1	5.915044	3.695407	9.667109
55	1	12.374391	16.363524	25.374063
56	1	26.287089	1.733029	20.644434
57	1	15.140068	14.363902	9.028523
58	1	18.761532	15.169209	23.587833
59	1	11.120559	22.340246	25.661507
60	1	21.070193	18.388089	2.206004
61	1	11.579753	17.621435	6.580227
62	1	9.098079	9.098977	15.024147
63	1	13.773133	28.224197	24.517046
64	1	5.131813	4.485028	19.360327
65	1	8.673980	13.252499	2.356012
66	1	24.594822	25.664482	8.810219
67	1	25.084078	6.518366	5.056545
68	1	30.081080	25.723679	8.376727
69	1	25.468512	31.168710	10.853756
70	1	19.062244	3.523951	11.355486
71	1	22.142851	25.480333	21.683787
72	1	4.615384	14.097534	1.212538
73	1	22.250647	2.383140	22.516386
74	1	2.287670	21.559449	14.369389
75	1	30.552336	2.859562	22.156557
76	1	24.006890	18.527361	6.757942
77	1	23.445488	8.458390	31.020949
78	1	23.143197	22.709174	16.923285
79	1	12.105481	24.436328	20.587964
80	1	1.027407	28.606500	15.431834
81	1	7.267462	19.570739	18.382117
82	1	0.798086	20.126795	30.322501
83	1	24.151701	11.263661	19.013587
84	1	10.564465	30.243831	10.987495
85	1	28.815843	30.560100	19.713147
86	1	13.031251	13.492962	3.000303
87	1	30.661230	6.978234	2.686266
88	1	23.360793	4.201178	1.722215
89	1	15.816450	17.650763	29.040715
90	1	14.420085	2.348568	4.656947
91	1	2.801122	3.250342	30.134127
92	1	0.786882	28.820346	20.036814
93	1	14.759342	15.657551	21.039113
94	1	7.926931	30.051769	11.034619
95	1	19.321580	14.648741	11.502464
96	1	1.263739	19.138585	11.078585
97	1	6.043972	18.601718	30.009021
98	1	10.132453	5.358246	9.962352
99	1	6.367542	30.064719	2.274064
100	1	19.465168	17.741205	13.081182
101	1	19.188613	11.826436	31.900564
102	1	21.304630	16.855329	31.948712
103	1	7.953150	18.960348	3.644741
104	1	7.069322	16.416587	26.141274
105	1	6.925885	25.065741	25.110033
106	1	19.989220	18.843014	21.484562
107	1	25.533462	4.119338	20.491030
108	1	22.600106	20.838537	13.314108
109	1	5.521498	23.473668	26.414641
110	1	4.854101	20.818426	12.017474
111	1	16.354947	3.380797	28.171208
112	1	13.461627	4.048127	24.810092
113	1	20.297273	1.577030	0.467633
114	1	20.001229	5.458574	30.404815
115	1	7.155174	11.845673	29.965131
116	1	10.603326	17.243571	23.630380
117	1	6.650431	7.901387	8.996244
118	1	20.819628	17.166346	27.175750
119	1	5.264605	29.333718	7.691352
120	1	30.277894	20.267466	7.220474
121	1	20.207275	8.691122	13.057086
122	1	23.333926	30.347391	3.520857
123	1	1.207264	15.636244	8.373523
124	1	2.974747	29.477003	8.390077
125	1	8.294037	16.206237	23.830372
126	1	1.040957	4.771670	31.480277
127	1	9.596030	4.533751	22.378746
128	1	0.632821	8.683098	3.185762
129	1	3.265416	0.428464	29.968054
130	1	23.579456	4.559126	18.777697
131	1	28.773791	5.355382	6.585417
132	1	19.530513	29.536509	19.589937
133	1	31.931258	4.632129	9.426733
134	1	3.742335	11.282238	10.728678
135	1	17.333645	5.136001	26.359041
136	1	2.142392	3.569565	15.307405
137	1	6.932960	15.823878	12.022344
138	1	12.073560	9.859666	31.660160
139	1	13.935549	0.722712	22.240151
140	1	26.796603	12.625484	9.411549
141	1	16.617963	4.642447	0.508144
142	1	31.990110	7.768838	15.156103
143	1	1.848658	26.529299	16.689313
144	1	27.445311	9.689686	2.951716
145	1	9.402607	24.104281	2.611720
146	1	6.686238	27.401840	2.838162
147	1	13.799898	18.268727	20.741934
148	1	6.180082	13.813189	9.978065
149	1	16.354959	6.158830	13.268909
150	1	16.733268	29.720391	27.123399
151	1	27.924321	7.606636	13.600480
152	1	7.455869	8.914341	13.147023
153	1	21.123463	11.062422	30.549434
154	1	29.035749	29.726652	21.997044
155	1	24.640163	15.596564	12.860811
156	1	6.498438	21.451749	16.646672
157	1	8.819404	26.175115	26.229704
158	1	21.110525	5.745288	3.031419
159	1	28.287094	12.858703	32.051932
160	1	27.892157	16.242601	2.728728
161	1	31.780556	18.689357	16.864794
162	1	31.471247	1.515150	4.378526
163	1	28.022913	21.143009	12.411971
164	1	10.354762	29.570520	15.348688
165	1	3.656722	23.230676	30.725139
166	1	4.336491	28.693272	2.085594
167	1	22.095151	9.892163	11.666460
168	1	19.179397	4.617392	18.077251
169	1	11.979354	17.893413	17.457927
170	1	6.348095	26.063568	16.525278
171	1	27.980346	29.758136	31.260897
172	1	14.341089	11.533166	11.855047
173	1	8.410040	15.272675	14.068427
174	1	3.126028	24.855372	3.194670
175	1	8.974749	5.900852	25.328707
176	1	27.029474	24.255926	23.150887
177	1	14.404671	15.347921	28.639949
178	1	21.928908	15.783494	29.725363
179	1	25.401089	11.317586	14.486452
180	1	21.815046	24.660945	4.981966
181	1	25.850494	7.700545	2.956533
182	1	16.318981	10.956507	6.435415
183	1	29.659968	25.226750	1.378352
184	1	23.110915	10.651109	29.086768
185	1	20.331016	26.640081	22.829690
186	1	4.260624	12.913896	3.357196
187	1	4.281272	16.448844	26.246203
188	1	5.828841	12.886736	24.556764
189	1	2.373656	27.266786	2.349072
190	1	9.320901	6.058964	27.845108
191	1	12.991505	7.589055	6.244213
192	1	26.830374	16.562910	20.153647
193	1	9.926531	10.285784	7.811180
194	1	18.007168	7.867105	14.404867
195	1	17.101385	14.564618	5.463110
196	1	31.250701	10.853131	4.193963
197	1	14.921835	30.840723	28.772535
198	1	26.715748	2.839520	29.503297
199	1	19.198513	9.104073	18.711100
200	1	24.431453	17.945436	23.066676
201	1	12.202197	15.597381	27.704525
202	1	16.318008	25.253182	29.487232
203	1	26.650118	31.879258	16.386749
204	1	18.017700	29.564607	9.699745
205	1	9.200338	0.292297	30.496812
206	1	16.343172	1.644620	8.685745
207	1	30.702805	0.594937	28.755840
208	1	17.590508	15.353757	9.504097
209	1	5.819640	11.934803	16.190861
210	1	21.484838	12.019421	15.534559
211	1	28.817566	26.008026	10.664216
212	1	23.756597	15.587663	3.753600
213	1	9.076011	17.680409	7.642778
214	1	14.115276	23.774946	3.524910
215	1	1.830099	26.759855	19.303881
216	1	10.576416	25.166167	17.688851
217	1	16.689199	22.279793	11.081247
218	1	17.867804	3.337512	9.205525
219	1	17.684901	10.789441	17.509610
220	1	6.517043	18.241179	25.042130
221	1	19.780600	21.929291	21.083243
222	1	17.057481	27.479273	30.752577
223	1	29.398518	8.242200	11.502416
224	1	29.554605	21.371010	3.059923
225	1	25.131770	25.936101	29.497850
226	1	7.187202	26.112675	9.570167
227	1	17.447592	31.678814	15.425897
228	1	7.007865	20.612849	31.593400
229	1	15.088798	3.103957	17.684176
230	1	1.638786	13.781477	12.238665
231	1	8.211415	30.551786	4.814559
232	1	31.898259	12.720319	2.475778
233	1	2.936771	0.606767	0.979303
234	1	6.439009	1.322146	16.332934
235	1	15.182011	3.022284	23.066930
236	1	13.382067	17.768413	8.226071
237	1	17.947375	31.561995	17.994264
238	1	2.904918	15.676004	24.015320
239	1	6.188350	7.728990	6.646639
240	1	1.457357	22.613549	18.654917
241	1	19.168209	21.939277	10.748764
242	1	18.769927	21.751562	27.863136
243	1	14.115276	9.341760	10.366654
244	1	2.434586	11.563421	22.276783
245	1	31.217395	1.320818	12.931508
246	1	7.947477	24.487372	7.628474
247	1	14.650197	15.056683	15.410147
248	1	10.536224	13.280924	11.645115
249	1	25.796174	23.605975	29.466684
250	1	24.877485	16.084679	21.447657
251	1	12.842355	10.849275	17.279869
252	1	14.846261	15.767982	12.906704
253	1	21.471314	9.703812	4.896536
254	1	10.748615	9.112076	17.336769
255	1	2.648271	5.079594	22.683583
256	1	12.866195	25.273043	5.478594
257	1	14.061867	25.661526	15.466537
258	1	20.998212	25.940404	31.219861
259	1	4.390195	27.980846	15.767952
260	1	6.118808	29.862453	24.501930
261	1	9.688592	29.677582	31.521990
262	1	10.457249	13.814054	28.155317
263	1	21.786548	21.300389	10.791641
264	1	10.014208	8.124098	3.013091
265	1	5.535232	24.592695	8.244285
266	1	2.044367	16.256278	30.570677
267	1	2.224943	22.864675	2.075942
268	1	29.811105	5.553911	22.354686
269	1	5.140349	12.009198	28.241448
270	1	5.609996	14.363314	17.269643
271	1	12.589370	20.439538	20.740661
272	1	16.753827	9.955419	15.312823
273	1	11.820609	5.229552	28.499451
274	1	9.770384	20.263255	26.920790
275	1	4.184344	0.956692	15.334638
276	1	25.974387	4.621769	13.713503
277	1	24.913257	25.271426	24.824980
278	1	2.381006	17.628405	17.225101
279	1	27.336441	29.629857	15.745160
280	1	7.824196	9.812949	10.663646
281	1	8.673443	12.015973	32.090731
282	1	26.551559	18.940025	21.595684
283	1	27.315079	14.997227	9.967103
284	1	18.318943	25.361152	23.333875
285	1	19.601389	7.064252	17.089741
286	1	2.323116	3.089691	1.121389
287	1	30.947822	1.871199	6.825156
288	1	29.488664	14.888923	11.182114
289	1	29.638943	2.713223	14.491235
290	1	6.988513	1.925116	22.473365
291	1	5.896164	2.515509	5.533151
292	1	6.259059	31.448490	6.435409
293	1	1.726187	2.551230	3.608471
294	1	29.841012	9.235181	2.815068
295	1	9.911929	12.732804	24.942524
296	1	23.223835	14.382831	31.853747
297	1	17.416713	14.413215	25.895423
298	1	18.894430	8.705550	26.961083
299	1	18.540994	7.605090	9.170191
300	1	13.313463	27.399648	1.129667
301	1	6.125592	2.101944	25.737000
302	1	4.927032	4.203699	26.476433
303	1	8.115978	15.300303	27.984427
304	1	8.002536	6.202983	6.073862
305	1	2.650301	15.987453	1.144192
306	1	3.979748	25.179326	15.789744
307	1	1.178033	23.947543	4.608087
308	1	10.875335	18.617901	31.551596
309	1	1.240138	11.897876	0.362664
310	1	3.024218	25.376649	23.470124
311	1	27.593185	11.306306	7.112370
312	1	2.262049	15.759691	13.539101
313	1	10.670601	30.790364	3.783584
314	1	17.562036	29.592271	31.945751
315	1	21.844653	11.420590	6.586061
316	1	13.654474	11.175540	6.653316
317	1	4.386095	31.416335	13.002207
318	1	14.681004	11.840261	18.854116
319	1	13.099993	19.225791	10.157766
320	1	23.190918	31.854199	18.590385
321	1	26.923940	21.540112	22.608834
322	1	29.208156	16.554663	19.356587
323	1	29.013584	4.511499	24.531380
324	1	12.883640	29.311401	28.699146
325	1	12.030305	1.647840	20.214221
326	1	1.314510	6.826702	9.711195
327	1	12.091261	8.981400	24.845470
328	1	28.574390	27.759428	8.578727
329	1	19.294844	14.922241	4.172385
330	1	29.143882	8.647585	17.954476
331	1	7.177489	23.111848	3.452274
332	1	4.663952	10.309726	3.182789
333	1	10.895322	17.843988	27.181341
334	1	1.833550	30.170170	21.746530
335	1	7.532759	28.680950	22.678605
336	1	29.005840	15.584037	6.515563
337	1	12.365078	2.637847	29.688097
338	1	20.634095	11.280607	22.266911
339	1	7.684894	29.231858	6.865520
340	1	25.854132	24.549063	10.764651
341	1	10.942744	14.115269	9.344046
342	1	24.405530	1.359497	10.069988
343	1	29.448771	0.626396	2.973638
344	1	17.491925	17.928002	9.358984
345	1	11.448420	20.558510	1.639283
346	1	7.436817	16.479162	30.220734
347	1	27.429207	20.110976	27.744379
348	1	28.328959	16.648665	14.962341
349	1	7.034614	2.869387	29.877963
350	1	16.918318	31.703892	12.731381
351	1	22.617662	7.869957	21.517061
352	1	1.863157	30.752015	31.302305
353	1	8.164035	16.046604	2.533082
354	1	22.492129	10.295032	26.427663
355	1	17.900455	2.287985	0.514780
356	1	20.918617	13.431657	13.510292
357	1	17.732272	8.639865	2.059452
358	1	21.630296	12.322876	1.256363
359	1	15.973386	29.760485	24.650926
360	1	2.847098	3.988954	27.640581
361	1	10.666366	26.535159	5.377149
362	1	25.433702	2.563732	27.195199
363	1	24.651216	9.870936	12.311940
364	1	17.330065	25.683625	25.612631
365	1	27.810136	25.245868	3.882050
366	1	28.775676	10.208160	4.988735
367	1	28.372202	19.584963	23.301297
368	1	27.598486	20.566238	1.299706
369	1	2.494504	1.986088	19.430604
370	1	27.668690	3.390558	19.031590
371	1	25.158167	24.432555	27.038023
372	1	6.447062	9.536840	15.497395
373	1	29.226027	0.667326	5.504080
374	1	25.641427	24.655439	0.419492
375	1	19.288102	16.333516	30.572327
376	1	27.972392	1.521744	27.588457
377	1	5.718611	18.752038	13.774940
378	1	7.310391	2.388316	11.387013
379	1	3.109842	0.439341	21.349481
380	1	11.811259	4.904125	30.941434
381	1	16.832121	27.195173	9.752079
382	1	5.689334	15.189399	7.906908
383	1	3.335507	28.759161	19.982136
384	1	20.598832	6.531573	22.190016
385	1	30.632066	24.229249	21.046903
386	1	25.672782	28.814810	11.746010
387	1	15.173483	5.211838	19.400592
388	1	22.565780	25.942715	24.100519
389	1	6.809797	30.380855	13.079717
390	1	29.326354	4.905309	9.032192
391	1	18.054475	23.195687	8.776883
392	1	21.275080	8.034876	26.166576
393	1	14.022175	25.676976	19.881021
394	1	27.528773	24.859528	15.215384
395	1	16.710068	1.315617	19.087708
396	1	21.025795	5.120078	11.668608
397	1	4.185505	27.366406	11.891833
398	1	6.478552	3.904478	15.971490
399	1	20.753891	4.593933	25.713274
400	1	21.107320	29.268903	12.800644
401	1	23.052657	11.752164	13.029014
402	1	29.929174	30.014287	12.324805
403	1	18.271273	12.577784	10.046170
404	1	13.748587	3.005514	15.593288
405	1	21.729158	28.380137	7.720248
406	1	16.026399	16.437034	1.775362
407	1	3.602137	13.857799	25.648169
408	1	17.440003	3.906747	13.275801
409	1	26.856102	11.155668	30.809489
410	1	9.430494	4.671642	31.988223
411	1	8.291151	17.585272	19.901999
412	1	4.502349	16.847754	12.601166
413	1	16.450204	2.775988	30.483944
414	1	10.615011	23.915357	4.871114
415	1	0.661506	15.437419	2.770237
416	1	20.960207	25.720257	11.204798
417	1	24.101043	11.898800	16.496738
418	1	7.851370	19.792640	8.654464
419	1	15.302442	7.540020	18.433535
420	1	22.816390	14.377954	24.810709
421	1	14.665315	25.116577	1.511011
422	1	9.683168	31.145888	26.714362
423	1	24.634954	14.487551	17.121290
424	1	31.351574	7.407804	17.458470
425	1	28.161355	28.440999	11.004357
426	1	23.905321	30.533005	25.704449
427	1	27.670724	12.257145	14.187305
428	1	22.954468	28.554195	26.820292
429	1	18.651044	13.127650	29.703647
430	1	30.550774	16.657399	1.641445
431	1	30.718916	19.484936	4.876882
432	1	31.778747	21.990939	8.314702
433	1	23.712321	31.911450	30.078534
434	1	21.724215	15.050228	10.326478
435	1	5.038927	13.023645	30.850932
436	1	29.362129	24.773285	24.422738
437	1	30.530898	12.383901	0.333177
438	1	15.253929	19.115675	8.514946
439	1	25.339238	9.364513	19.877645
440	1	11.603012	5.707737	21.310850
441	1	30.344326	9.642929	29.597417
442	1	24.953122	16.402524	6.051847
443	1	4.451958	25.897952	25.766979
444	1	31.070443	17.945726	26.328112
445	1	31.632547	19.629831	9.106340
446	1	13.616165	24.552777	7.887799
447	1	22.222843	19.336264	31.994163
448	1	19.734263	1.980919	22.249677
449	1	25.518124	23.536255	16.071277
450	1	5.126149	4.390544	12.035674
451	1	2.524508	19.643859	15.936437
452	1	23.509119	20.719519	19.202676
453	1	23.970234	19.726217	11.078070
454	1	12.348241	14.796513	30.085798
455	1	30.437838	2.641564	9.130124
456	1	12.723277	4.188780	19.451876
457	1	13.836421	8.320142	0.669557
458	1	8.351424	6.476729	3.423286
459	1	11.165071	17.921350	13.612201
460	1	32.016253	21.428294	10.799671
461	1	15.914335	31.765570	20.864316
462	1	11.840188	22.531671	3.417177
463	1	2.770892	24.614563	18.096162
464	1	29.521160	20.316851	16.937089
465	1	26.068943	27.256177	7.333249
466	1	12.773559	17.652328	30.076944
467	1	4.530910	29.714573	17.811693
468	1	2.725392	4.857057	25.156497
469	1	19.613838	19.413541	27.376674
470	1	15.371361	4.024237	9.560894
471	1	28.680429	7.453517	9.202279
472	1	27.092005	10.082867	18.277954
473	1	2.424593	5.757763	29.473476
474	1	27.429702	22.500516	7.794517
475	1	17.652795	11.014042	22.366440
476	1	29.542068	30.335990	9.773077
477	1	3.451004	12.078042	5.547668
478	1	20.521124	25.925190	28.571419
479	1	9.122700	21.280816	17.900345
480	1	17.383465	25.766888	19.262528
481	1	14.799744	10.566462	22.075513
482	1	13.143987	3.592766	2.920969
483	1	29.829100	16.823796	12.860817
484	1	24.344700	7.627412	7.222600
485	1	32.046838	28.493334	12.879811
486	1	16.867900	19.900110	18.414521
487	1	6.975773	21.451118	10.606689
488	1	4.968084	23.929732	24.011288
489	1	30.981477	23.161395	1.765825
490	1	28.481074	17.153348	10.722236
491	1	10.739817	12.570547	4.140403
492	1	2.589269	19.945739	28.410164
493	1	4.082879	26.527876	20.790517
494	1	23.341938	8.432032	19.113820
495	1	6.922137	30.840419	8.856715
496	1	5.229387	10.538459	30.855002
497	1	9.658859	2.356646	2.731876
498	1	12.441593	9.826086	12.368122
499	1	10.778222	22.271272	14.385028
500	1	11.994290	23.113953	12.672230
501	1	20.998270	31.900535	12.258285
502	1	4.187881	3.209192	21.486002
503	1	17.424056	16.504440	11.897634
504	1	11.335147	14.986725	5.119197
505	1	29.531495	15.914169	8.743572
506	1	0.320927	13.076018	7.763355
507	1	10.340594	27.362803	16.360489
508	1	2.054553	25.141342	29.954241
509	1	5.766503	18.101799	22.521493
510	1	20.054617	11.620614	17.638734
511	1	4.193138	23.154997	19.552933
512	1	19.584395	6.279119	6.693682
513	1	14.640141	6.624682	11.464338
514	1	16.514819	5.415422	17.403682
515	1	23.553923	19.747980	2.475250
516	1	12.118254	12.161214	13.345063
517	1	26.739636	22.311464	31.470180
518	1	5.437236	31.733023	26.274108
519	1	30.483410	8.409222	32.099200
520	1	20.803897	4.213088	23.374704
521	1	7.073149	20.527693	26.222169
522	1	27.834683	21.698632	18.386044
523	1	3.348308	9.291728	22.942855
524	1	15.377981	6.594484	31.133130
525	1	3.863619	9.751468	27.663636
526	1	23.232902	9.471855	6.821077
527	1	31.546891	26.513459	20.764003
528	1	23.923853	2.555744	29.527783
529	1	17.174880	3.710908	19.246145
530	1	28.762692	5.178311	2.631590
531	1	28.885449	28.061028	27.038920
532	1	2.329550	13.586916	1.885865
533	1	26.297428	9.142718	8.341494
534	1	3.196736	31.530022	27.424235
535	1	6.058827	23.418293	15.096037
536	1	26.940284	28.540307	23.073006
537	1	19.857445	7.568647	1.450103
538	1	23.622813	27.631580	15.947837
539	1	17.276723	10.036535	4.149011
540	1	31.841918	8.740689	25.670160
541	1	3.649449	28.121080	24.649828
542	1	29.469962	7.421805	15.637055
543	1	15.069900	20.319249	28.754331
544	1	24.189043	22.920212	31.254880
545	1	27.437782	19.387414	10.486573
546	1	2.745533	21.143573	-1.131870
547	1	2.637367	22.950670	22.988369
548	1	25.191261	18.643986	19.607628
549	1	21.022294	12.035531	28.229469
550	1	16.365823	24.809076	16.060307
551	1	8.564263	18.708280	30.662473
552	1	26.244551	21.072512	20.117749
553	1	5.635422	13.934542	21.471152
554	1	6.657871	7.968916	17.786345
555	1	6.950354	2.463741	3.130317
556	1	29.727584	19.631863	28.018687
557	1	6.303601	8.988634	23.906099
558	1	2.700237	8.554310	25.701455
559	1	10.036324	31.499590	17.090325
560	1	20.365586	14.312071	19.885772
561	1	25.668264	31.019732	4.003658
562	1	4.911279	30.802063	19.989143
563	1	1.916389	26.584741	4.894154
564	1	27.323763	29.045446	6.291970
565	1	13.429667	15.955952	2.113991
566	1	9.221135	26.579107	2.596755
567	1	31.034367	13.824920	4.417848
568	1	12.244880	30.238795	13.284860
569	1	5.916709	27.935105	32.134903
570	1	24.964582	10.061896	27.250511
571	1	30.924642	21.536195	29.475712
572	1	29.369284	17.647328	17.025608
573	1	22.620551	15.090061	20.409527
574	1	10.650383	0.956958	28.633844
575	1	29.429876	26.253324	16.804519
576	1	22.648345	20.355360	16.580265
577	1	13.073059	20.116546	7.150704
578	1	17.441491	25.452528	8.108613
579	1	27.980620	2.974832	10.100365
580	1	2.913609	31.516290	10.834831
581	1	21.623660	18.739341	11.836920
582	1	15.464909	1.200543	6.485927
583	1	25.157107	23.371542	8.503253
584	1	27.585277	21.059327	25.208209
585	1	1.235027	2.938215	7.967451
586	1	0.827789	5.284972	11.702391
587	1	29.674651	27.402989	12.785862
588	1	6.266058	6.579337	12.618700
589	1	14.143603	2.332162	31.560045
590	1	4.736553	21.004922	14.566500
591	1	31.151440	3.215464	32.085882
592	1	20.056076	10.686832	26.205711
593	1	30.608567	5.785266	4.907315
594	1	21.876885	0.698426	9.958859
595	1	0.960850	3.216112	26.192542
596	1	3.786960	11.671978	0.926008
597	1	3.831923	14.841846	9.223823
598	1	26.182236	25.709684	19.501397
599	1	7.358224	30.160582	26.984287
600	1	23.031573	21.822414	1.465439
601	1	17.957536	6.440154	22.276791
602	1	4.251117	16.184683	21.785519
603	1	19.933656	3.199302	16.069841
604	1	2.503959	8.997079	10.188160
605	1	27.372477	15.663083	12.546250
606	1	14.765495	13.458472	30.616180
607	1	10.235359	4.191829	26.630611
608	1	26.446253	18.989282	5.726721
609	1	9.656914	9.621256	0.907084
610	1	25.597054	8.829133	14.329018
611	1	6.345204	32.017070	10.993747
612	1	23.314773	17.446806	1.715141
613	1	22.375478	12.578483	20.626342
614	1	21.685789	29.064396	15.306239
615	1	13.198207	16.597532	19.072687
616	1	11.946978	31.479873	22.009464
617	1	30.144831	12.960110	24.825758
618	1	23.857993	11.208504	4.935671
619	1	17.786830	22.730304	15.297725
620	1	22.274518	6.471643	8.367045
621	1	4.585364	31.714658	8.675426
622	1	20.226482	4.085404	13.767818
623	1	21.486924	15.393811	5.197813
624	1	5.970491	6.402186	1.974883
625	1	2.574799	17.512962	5.961545
626	1	26.226620	13.496587	27.334343
627	1	8.174110	22.518423	1.078224
628	1	23.728922	25.532783	4.071310
629	1	24.196313	19.968653	4.749095
630	1	31.204560	11.776297	9.618921
631	1	30.906078	16.082263	15.296684
632	1	28.664942	8.732291	6.970891
633	1	21.196499	21.091326	28.529803
634	1	17.778548	10.322321	8.422642
635	1	12.185189	15.160207	20.792862
636	1	20.490189	15.154319	25.407123
637	1	14.988562	9.179258	7.774250
638	1	7.020413	28.354114	9.205474
639	1	18.053930	6.080156	2.597470
640	1	24.571323	16.987930	8.625309
641	1	6.428937	0.524641	30.548836
642	1	10.524812	8.230498	12.989498
643	1	8.782948	31.512076	7.223345
644	1	8.091172	11.744994	20.525687
645	1	14.229080	11.666200	26.311945
646	1	22.514540	21.695725	23.342318
647	1	14.261270	22.568541	11.880794
648	1	2.100136	18.368713	26.602317
649	1	5.715246	16.481833	28.328434
650	1	27.066829	6.025290	0.535629
651	1	23.737776	8.673820	4.317461
652	1	4.413558	16.306273	17.320335
653	1	21.975363	29.279465	17.851394
654	1	22.316491	19.322327	27.121101
655	1	16.378155	21.339641	24.607629
656	1	4.592799	23.774783	1.372661
657	1	25.994263	17.337700	14.163678
658	1	16.617580	14.118506	14.106236
659	1	1.593582	11.808468	16.401166
660	1	26.641680	4.431619	5.574163
661	1	31.031820	14.303839	22.741501
662	1	3.569921	30.588380	6.116317
663	1	16.218013	16.667138	26.771038
664	1	18.135362	26.467999	5.991767
665	1	1.608911	20.344127	1.092028
666	1	3.845311	13.423733	23.138630
667	1	1.755055	1.595682	5.880357
668	1	9.656033	30.390281	22.524118
669	1	11.394418	22.380604	19.322529
670	1	9.849031	13.337476	13.982656
671	1	17.133698	29.746218	29.553481
672	1	29.351096	12.424699	16.049538
673	1	26.868940	0.740078	9.346360
674	1	27.765243	5.784816	20.323409
675	1	21.789324	23.670233	32.120120
676	1	14.059234	28.382952	12.666403
677	1	5.358454	30.962679	28.807002
678	1	15.015290	18.810301	30.885347
679	1	26.658003	7.586133	18.316224
680	1	14.632021	17.618223	25.045813
681	1	8.851942	8.350614	19.174354
682	1	2.889656	29.082776	4.141951
683	1	30.443282	5.068782	26.710402
684	1	3.519111	17.098123	15.063372
685	1	17.293191	29.817895	22.369104
686	1	8.776607	0.340883	12.530789
687	1	31.944600	1.036048	18.463900
688	1	21.299595	23.237870	2.887321
689	1	18.539491	12.555980	12.560898
690	1	13.248174	0.757448	14.572907
691	1	30.701970	6.470349	10.555559
692	1	24.106735	22.122134	12.088012
693	1	31.477944	13.444786	17.267137
694	1	15.312428	31.817924	26.260699
695	1	10.796955	22.782218	16.796495
696	1	5.764044	30.657849	15.549602
697	1	0.354539	17.729861	12.783092
698	1	22.853764	30.110959	23.324396
699	1	9.235174	29.718753	8.855485
700	1	6.549818	20.148910	23.664403
701	1	27.619949	30.785500	11.597931
702	1	12.383022	17.099095	4.086810
703	1	21.494020	4.191695	6.939485
704	1	30.014580	17.693899	23.620446
705	1	16.797000	10.865932	11.238161
706	1	22.747804	31.047641	14.030256
707	1	25.246296	27.090966	27.056946
708	1	3.292265	29.605223	29.282811
709	1	1.184430	19.289744	21.373966
710	1	5.850459	14.283235	26.787046
711	1	3.881412	24.343810	28.147255
712	1	20.038102	30.957394	14.408174
713	1	3.891580	2.485191	8.225449
714	1	0.483061	21.684570	24.338848
715	1	1.658288	23.137277	9.774313
716	1	5.276142	28.184846	29.695044
717	1	23.661180	25.501078	19.902909
718	1	5.549526	6.093846	10.176977
719	1	21.716350	20.699127	3.790309
720	1	6.765567	21.084662	5.044604
721	1	18.263149	24.430147	27.848097
722	1	9.927458	15.355315	7.211349
723	1	4.954160	16.675128	5.931151
724	1	18.476355	21.388988	17.239298
725	1	2.540667	7.960546	14.586371
726	1	21.284015	24.337945	15.884611
727	1	7.737414	31.034636	0.478024
728	1	14.256515	29.475849	26.586104
729	1	31.147792	30.549644	19.124460
730	1	30.186183	9.046227	13.815217
731	1	28.833383	18.081392	21.294851
732	1	1.500486	15.541488	15.953704
733	1	24.750352	2.879870	22.553812
734	1	6.709469	27.848085	11.875357
735	1	22.281756	10.400581	17.231293
736	1	26.594487	1.194100	11.919012
737	1	26.784884	8.345651	10.761599
738	1	11.952180	22.122211	8.341929
739	1	26.011225	10.672158	10.404399
740	1	16.900805	2.758898	4.677428
741	1	11.768235	16.329484	32.030906
742	1	25.048246	5.277434	23.004764
743	1	31.409739	29.062097	26.689514
744	1	4.894920	5.739247	21.511313
745	1	7.453869	15.976921	6.617426
746	1	19.861872	17.076545	15.775292
747	1	27.913405	13.918813	19.732674
748	1	15.536807	20.858082	6.635904
749	1	8.516635	22.685292	6.013842
750	1	10.076296	11.812753	22.423401
751	1	12.049131	29.509676	31.530056
752	1	16.430708	7.547657	3.956388
753	1	27.206295	26.241598	1.621417
754	1	11.000227	4.221548	17.270166
755	1	28.922213	0.525123	8.224559
756	1	21.801169	27.851861	10.837333
757	1	0.510606	3.820005	5.362143
758	1	18.712529	12.678241	27.138050
759	1	6.021129	22.850744	31.478804
760	1	12.160233	24.804706	24.507107
761	1	2.623019	20.621087	23.200557
762	1	3.678461	18.109237	1.505899
763	1	28.272531	27.131026	14.858879
764	1	10.128383	27.332689	13.728959
765	1	30.191760	11.482476	13.854595
766	1	27.200488	13.836065	2.174795
767	1	11.671538	29.285306	20.948701
768	1	12.601700	30.817814	16.130518
769	1	15.401717	21.270702	31.286666
770	1	10.941642	4.759632	24.245741
771	1	14.710788	26.510877	31.152452
772	1	28.378680	7.707549	1.536207
773	1	31.260351	0.353767	8.823800
774	1	6.622602	22.067927	7.956220
775	1	31.443563	22.125953	5.812787
776	1	29.872581	2.893797	2.216184
777	1	25.178104	12.103058	29.262237
778	1	8.461946	23.558063	14.283447
779	1	17.731769	29.593864	14.148043
780	1	12.607990	25.202005	31.947455
781	1	21.280340	14.820672	15.633250
782	1	19.049341	-0.245972	23.518581
783	1	1.228578	3.376131	17.624964
784	1	17.669145	3.738718	2.642146
785	1	15.753404	4.461261	15.265013
786	1	10.072444	27.878461	22.421508
787	1	10.960850	26.929288	24.763364
788	1	26.339420	27.086153	9.988729
789	1	12.961831	13.072663	15.803791
790	1	17.116822	17.242529	31.311874
791	1	17.418511	8.146171	17.063385
792	1	26.534671	11.560540	1.495085
793	1	5.624012	25.002071	3.722213
794	1	23.127367	27.976080	3.944401
795	1	21.504952	28.063138	24.746461
796	1	24.407621	26.640249	2.034034
797	1	23.680138	8.634551	1.647528
798	1	14.424278	31.966164	12.323346
799	1	1.646060	18.087059	8.666854
800	1	12.911386	21.684309	17.378775
801	1	27.384746	15.762640	26.881396
802	1	23.516625	21.373808	8.935127
803	1	23.766619	31.878750	5.767661
804	1	19.971419	17.271656	4.235981
805	1	9.025996	18.306710	25.340813
806	1	31.825664	27.701766	1.227087
807	1	0.327984	5.240947	21.432221
808	1	2.891049	12.055397	13.341729
809	1	28.435614	14.367861	4.391763
810	1	15.311205	24.964841	5.514109
811	1	1.364121	8.183788	7.432855
812	1	26.425220	1.152932	23.151877
813	1	27.927874	30.901662	23.956704
814	1	13.179396	4.207433	8.218092
815	1	20.408234	16.319057	21.380798
816	1	30.077860	22.254830	12.006934
817	1	14.143020	7.494789	25.010920
818	1	8.628486	3.327566	9.273728
819	1	10.187373	13.570970	20.604022
820	1	6.478023	9.593414	19.815713
821	1	9.979512	20.265137	13.309488
822	1	16.285698	11.682471	13.589125
823	1	27.412653	16.691490	5.178147
824	1	28.859119	18.392825	6.242353
825	1	21.843544	31.403279	16.345600
826	1	10.476903	25.408688	22.325196
827	1	24.905461	15.484361	23.912399
828	1	31.895665	23.552821	26.132943
829	1	13.050251	11.152369	3.695275