ITEM: TIMESTEP
0
ITEM: NUMBER OF ATOMS
2000
ITEM: BOX BOUNDS pp pp pp
0.299875	32.130125
0.299875	32.130125
0.299875	32.130125
ITEM: ATOMS id type x y z
1	1	8.093445	21.789251	22.123709
2	1	25.709111	0.643322	28.727479
3	1	19.911754	11.682235	8.356629
4	1	16.137376	26.472127	11.944283
5	1	23.453915	19.798768	24.716986
6	1	3.809459	19.140526	21.328774
7	1	22.816836	23.688723	25.462334
8	1	9.612617	18.586100	18.015412
9	1	15.038204	16.959626	17.020567
10	1	21.785433	3.688016	31.130482
11	1	19.484255	18.787663	8.061616
12	1	6.579655	4.691156	31.814225
13	1	22.356978	11.918525	24.154428
14	1	3.818023	6.397627	5.683068
15	1	3.427941	30.665177	25.069102
16	1	26.006377	19.591088	24.118424
17	1	7.341121	26.476347	30.391657
18	1	15.539589	29.550349	6.328966
19	1	27.894258	18.339682	12.937170
20	1	2.997754	24.654389	8.601531
21	1	31.721851	15.346253	12.511681
22	1	23.595047	28.699403	13.513738
23	1	8.862674	29.351229	17.426894
24	1	20.588654	31.567786	18.517094
25	1	16.693979	29.377066	16.631557
26	1	23.213006	17.254658	28.134339
27	1	30.318525	28.646817	5.178645
28	1	25.065525	25.831446	14.643968
29	1	9.078409	29.015547	20.125999
30	1	18.045435	26.893434	16.376721
31	1	27.911570	3.071956	12.611778
32	1	25.706272	1.315758	31.264970
33	1	21.310831	3.770414	19.499090
34	1	26.160198	20.548412	3.591624
35	1	24.798498	13.012353	24.462727
36	1	5.861956	0.627626	1.561134
37	1	22.032209	18.910380	22.997942
38	1	18.144712	31.814590	1.166357
39	1	25.472403	17.554844	25.554243
40	1	23.672288	18.388812	17.701630
41	1	28.913323	0.591954	21.957549
42	1	17.268472	18.730812	6.763697
43	1	8.440588	26.573038	23.734026
44	1	24.475603	21.587519	14.920540
45	1	22.731766	16.130834	22.768068
46	1	16.254984	27.411616	4.835730
47	1	21.549260	19.215863	18.724007
48	1	16.953092	14.921965	16.450080
49	1	21.518229	9.548985	0.677140
50	1	25.063875	10.283157	2.841270
51	1	10.975830	28.193918	3.637437
52	1	1.388495	7.404039	19.386716
53	1	5.529846	8.383325	26.134895
54	1	5.978345	3.660677	9.695880
55	1	12.379706	16.367038	25.373987
56	1	26.347015	1.751735	20.623763
57	1	15.123176	14.391970	9.014178
58	1	18.772416	15.173971	23.595799
59	1	11.121965	22.350753	25.650925
60	1	21.048312	18.356264	2.201605
61	1	11.527467	17.661457	6.574368
62	1	9.082966	9.129134	15.005784
63	1	13.744018	28.200967	24.517230
64	1	5.164629	4.513523	19.352483
65	1	8.637175	13.302328	2.339447
66	1	24.588758	25.659699	8.818972
67	1	25.044452	6.501346	5.019274
68	1	30.069983	25.730386	8.390780
69	1	25.479203	31.187152	10.862544
70	1	19.097423	3.516169	11.347587
71	1	22.143082	25.510404	21.705764
72	1	4.527155	14.206728	1.255285
73	1	22.358701	2.408822	22.503250
74	1	2.281228	21.562555	14.364891
75	1	30.584988	2.871354	22.133205
76	1	23.979257	18.522091	6.754712
77	1	23.432660	8.447173	30.995410
78	1	23.149662	22.699036	16.928720
79	1	12.120836	24.444445	20.577259
80	1	1.041001	28.623473	15.419109
81	1	7.274442	19.575342	18.369898
82	1	0.987831	20.298244	30.386767
83	1	24.163235	11.275437	18.999534
84	1	10.588601	30.219887	10.977026
85	1	28.837853	30.566849	19.702530
86	1	13.004423	13.492325	2.987649
87	1	30.675701	7.017609	2.673514
88	1	23.363693	4.194074	1.701460
89	1	15.813028	17.644650	29.035687
90	1	14.418601	2.348371	4.648197
91	1	2.774832	3.235193	30.133914
92	1	0.798959	28.822962	20.026023
93	1	14.745381	15.659737	21.039162
94	1	7.943595	30.035606	11.035392
95	1	19.300964	14.652171	11.499309
96	1	1.251022	19.153680	11.075558
97	1	5.967283	18.641701	29.987274
98	1	10.215012	5.280673	9.990128
99	1	6.370040	30.056635	2.287753
100	1	19.454915	17.738520	13.080426
101	1	19.165117	11.809776	31.879941
102	1	21.284748	16.827806	31.939494
103	1	8.029364	18.999800	3.626913
104	1	7.036886	16.442332	26.142404
105	1	6.960921	25.064258	25.090210
106	1	19.995534	18.843017	21.494706
107	1	25.590543	4.140394	20.457382
108	1	22.605049	20.823666	13.307232
109	1	5.583099	23.445117	26.346972
110	1	4.849874	20.819181	11.997718
111	1	16.373406	3.364267	28.156899
112	1	13.486412	4.048818	24.808186
113	1	20.299764	1.576789	0.449073
114	1	19.987975	5.457139	30.404830
115	1	7.137979	11.895309	30.003323
116	1	10.613785	17.248852	23.633267
117	1	6.778299	7.658461	8.658500
118	1	20.822705	17.162714	27.169277
119	1	5.269511	29.330211	7.693566
120	1	30.234498	20.273068	7.228532
121	1	20.196216	8.666076	13.053724
122	1	23.344096	30.336480	3.499277
123	1	1.330354	15.785629	8.269265
124	1	2.979582	29.464290	8.395100
125	1	8.299208	16.209514	23.840016
126	1	0.984358	4.751821	31.463761
127	1	9.607121	4.545109	22.397412
128	1	0.642652	8.804376	3.137056
129	1	3.250790	0.391617	29.977132
130	1	23.609665	4.563291	18.771968
131	1	28.781553	5.379166	6.592999
132	1	19.548897	29.554968	19.617714
133	1	31.967508	4.656863	9.387162
134	1	4.498443	11.218982	10.558442
135	1	17.381189	5.093042	26.359239
136	1	2.186468	3.581930	15.291924
137	1	6.931026	15.932891	12.034195
138	1	12.062001	9.843176	31.665618
139	1	13.888181	0.731567	22.210045
140	1	26.675053	12.596579	9.442177
141	1	16.618444	4.624256	0.486057
142	1	32.033078	7.770586	15.100978
143	1	1.857496	26.538536	16.676530
144	1	27.404504	9.687174	2.915830
145	1	9.421509	24.132235	2.602693
146	1	6.680023	27.402967	2.837091
147	1	13.806251	18.276347	20.735426
148	1	6.088479	13.571452	9.979264
149	1	16.382433	6.152582	13.277986
150	1	16.702538	29.685406	27.135743
151	1	27.953115	7.681137	13.549568
152	1	7.466951	8.953069	13.077992
153	1	21.109977	11.054713	30.527299
154	1	29.049874	29.722610	21.986669
155	1	24.616582	15.596433	12.868445
156	1	6.495057	21.451426	16.633343
157	1	8.838856	26.174215	26.222545
158	1	21.094113	5.726069	3.019604
159	1	28.205303	12.875768	32.021276
160	1	27.836912	16.237583	2.736431
161	1	31.775986	18.702264	16.856840
162	1	31.450612	1.490816	4.364810
163	1	28.019611	21.115001	12.434529
164	1	10.382590	29.580529	15.338400
165	1	3.464493	22.919666	31.165287
166	1	4.334783	28.646602	2.091988
167	1	22.067604	9.887456	11.666088
168	1	19.196467	4.616458	18.107275
169	1	11.994971	17.904506	17.462064
170	1	6.358460	26.071566	16.519064
171	1	27.987833	29.719460	31.221585
172	1	14.316206	11.528736	11.847234
173	1	8.444723	15.330877	14.103875
174	1	3.102371	24.776955	3.286749
175	1	8.984477	5.907366	25.353888
176	1	27.032160	24.266175	23.148826
177	1	14.370189	15.338796	28.661479
178	1	21.903322	15.761687	29.714921
179	1	25.362970	11.313091	14.481714
180	1	21.822590	24.652415	4.983323
181	1	25.817353	7.698128	2.920433
182	1	16.303601	10.966361	6.414662
183	1	29.696824	25.281131	1.353829
184	1	23.106847	10.639096	29.063507
185	1	20.323410	26.716628	22.862208
186	1	4.147998	13.016685	3.480813
187	1	4.236393	16.433252	26.264402
188	1	5.820194	12.894199	24.567553
189	1	2.363063	27.206768	2.362107
190	1	9.305360	6.050791	27.864013
191	1	12.912626	7.549855	6.212975
192	1	26.840888	16.564240	20.173186
193	1	9.918044	10.251957	7.891989
194	1	18.007608	7.869889	14.406076
195	1	17.103899	14.557371	5.454809
196	1	31.133480	10.957147	4.239105
197	1	14.906048	30.831919	28.773407
198	1	26.724456	2.824977	29.489810
199	1	19.201324	9.130091	18.699155
200	1	24.442701	17.948974	23.065297
201	1	12.187424	15.600395	27.708790
202	1	16.300022	25.240476	29.489108
203	1	26.677408	31.892713	16.369045
204	1	18.039091	29.563162	9.690918
205	1	9.179123	0.301286	30.502845
206	1	16.361866	1.627219	8.675227
207	1	30.708540	0.554475	28.739421
208	1	17.575586	15.359464	9.503068
209	1	5.829343	11.967028	16.222325
210	1	21.467471	12.013507	15.530565
211	1	28.809494	26.017893	10.676003
212	1	23.736901	15.584705	3.753588
213	1	9.037274	17.671075	7.650872
214	1	14.116418	23.777453	3.523874
215	1	1.840354	26.768312	19.288493
216	1	10.592685	25.174489	17.668228
217	1	16.688374	22.280083	11.083954
218	1	17.907396	3.315250	9.156828
219	1	17.680899	10.795010	17.502940
220	1	6.555098	18.266385	25.012345
221	1	19.783521	21.941700	21.085924
222	1	17.042030	27.471847	30.754986
223	1	29.414740	8.288010	11.447454
224	1	29.428342	21.402469	3.053357
225	1	25.080551	25.883567	29.449036
226	1	7.193707	26.108330	9.570912
227	1	17.476385	31.687129	15.443511
228	1	6.972263	20.646832	31.546952
229	1	15.099407	3.105955	17.681054
230	1	1.617709	13.830406	12.137450
231	1	8.211261	30.570213	4.809839
232	1	31.795848	12.812553	2.512430
233	1	2.913663	0.563847	0.971541
234	1	6.491806	1.356565	16.286441
235	1	15.202688	2.997083	23.059220
236	1	13.346161	17.782343	8.233996
237	1	17.972888	31.574215	18.009992
238	1	2.890058	15.678883	24.027561
239	1	5.896236	7.755528	6.434607
240	1	1.455415	22.621520	18.642923
241	1	19.166702	21.940194	10.747284
242	1	18.767815	21.741535	27.870792
243	1	14.094726	9.353118	10.360574
244	1	2.432409	11.559884	22.280975
245	1	31.246360	1.350236	12.914226
246	1	7.968112	24.494165	7.643910
247	1	14.636809	15.050726	15.399737
248	1	10.561640	13.284203	11.642889
249	1	25.853154	23.569694	29.457607
250	1	24.870653	16.093915	21.443978
251	1	12.837207	10.857924	17.264369
252	1	14.831951	15.768827	12.898816
253	1	21.447514	9.699368	4.877860
254	1	10.746556	9.135945	17.294641
255	1	2.659970	5.094187	22.678267
256	1	12.888157	25.279022	5.484671
257	1	14.101472	25.660626	15.444144
258	1	20.978363	25.928513	31.225952
259	1	4.388335	27.984365	15.761358
260	1	6.121338	29.840218	24.509886
261	1	9.667585	29.690023	31.520155
262	1	10.417682	13.805602	28.136078
263	1	21.789719	21.290979	10.789559
264	1	9.987290	8.113865	3.025044
265	1	5.536543	24.563417	8.238030
266	1	1.995883	16.359069	30.588195
267	1	2.350920	22.735652	2.123516
268	1	29.856995	5.571662	22.332772
269	1	5.111578	12.006611	28.312815
270	1	5.615381	14.389112	17.295438
271	1	12.606884	20.446234	20.725014
272	1	16.748427	9.960194	15.309358
273	1	11.806177	5.210092	28.517304
274	1	9.761545	20.280075	26.909293
275	1	4.210386	0.973646	15.326448
276	1	26.008061	4.629479	13.688883
277	1	24.905401	25.289542	24.828203
278	1	2.368874	17.626578	17.224711
279	1	27.353458	29.639290	15.741605
280	1	8.176032	9.496023	9.891099
281	1	8.572038	11.931527	32.183909
282	1	26.570789	18.955519	21.601504
283	1	27.309292	14.939014	10.023413
284	1	18.330133	25.378778	23.354155
285	1	19.608343	7.065568	17.103517
286	1	2.239279	3.023895	1.081040
287	1	30.972837	1.887496	6.808910
288	1	29.570442	14.919225	11.135698
289	1	29.677172	2.758344	14.472193
290	1	6.981390	1.932531	22.480162
291	1	5.911350	2.563076	5.525688
292	1	6.267280	31.440064	6.440118
293	1	1.684269	2.519678	3.585146
294	1	29.815415	9.259535	2.789814
295	1	9.894565	12.743192	24.975315
296	1	23.186024	14.393486	31.848574
297	1	17.413407	14.417083	25.895213
298	1	18.905794	8.687419	26.939378
299	1	18.526141	7.604254	9.159013
300	1	13.298118	27.402003	1.125901
301	1	6.120272	2.100132	25.745249
302	1	4.919714	4.205699	26.484577
303	1	8.072399	15.304826	27.979133
304	1	7.919246	6.251777	6.206911
305	1	2.554862	16.091707	1.146863
306	1	3.983614	25.180648	15.779623
307	1	1.082786	24.004067	4.669380
308	1	10.850393	18.624712	31.539472
309	1	1.174938	11.972776	0.402135
310	1	3.062698	25.390210	23.469665
311	1	27.496726	11.267411	7.099970
312	1	2.267189	15.745223	13.546304
313	1	10.699488	30.776049	3.785969
314	1	17.556383	29.591172	31.938814
315	1	21.826485	11.414695	6.577987
316	1	13.638203	11.193371	6.643679
317	1	4.402150	31.410470	13.000587
318	1	14.666495	11.852404	18.861013
319	1	13.086330	19.244027	10.142629
320	1	23.226873	31.842725	18.571057
321	1	26.936889	21.551486	22.626588
322	1	29.209255	16.556236	19.362999
323	1	29.041683	4.520295	24.505382
324	1	12.847274	29.306034	28.692122
325	1	12.040249	1.656004	20.230932
326	1	1.340325	6.863872	9.670773
327	1	12.104391	8.970506	24.839839
328	1	28.565503	27.753672	8.582286
329	1	19.279200	14.908989	4.161064
330	1	29.156409	8.657076	17.894666
331	1	7.220495	23.150657	3.452945
332	1	4.466925	10.335581	3.114332
333	1	10.920207	17.878053	27.185860
334	1	1.834399	30.165623	21.740347
335	1	7.547550	28.699357	22.653336
336	1	29.171748	15.326830	6.528949
337	1	12.338464	2.644749	29.669471
338	1	20.647205	11.280351	22.260029
339	1	7.690583	29.227642	6.861001
340	1	25.832802	24.539501	10.786197
341	1	10.938725	14.129825	9.320882
342	1	24.421471	1.371946	10.060952
343	1	29.434381	0.587398	2.969167
344	1	17.479912	17.935816	9.357190
345	1	11.448512	20.557404	1.623490
346	1	7.399677	16.510620	30.217321
347	1	27.502771	20.063866	27.817328
348	1	28.327953	16.647974	14.958078
349	1	7.008078	2.851848	29.892358
350	1	16.957060	31.714681	12.725130
351	1	22.658104	7.886365	21.506437
352	1	1.845114	30.705592	31.299496
353	1	8.150612	16.099864	2.511198
354	1	22.490981	10.281030	26.408455
355	1	17.904247	2.270849	0.493600
356	1	20.891524	13.426253	13.508833
357	1	17.708611	8.637587	2.044934
358	1	21.607373	12.318695	1.237091
359	1	15.949814	29.700826	24.663093
360	1	2.841573	3.982362	27.642730
361	1	10.690078	26.542770	5.378849
362	1	25.448185	2.554497	27.181760
363	1	24.610180	9.878289	12.311969
364	1	17.322067	25.638800	25.633690
365	1	27.777857	25.248764	3.890149
366	1	28.685892	10.198206	4.962856
367	1	28.392768	19.594402	23.310386
368	1	27.492756	20.578668	1.327972
369	1	2.495103	1.990779	19.434879
370	1	27.712589	3.410935	18.988052
371	1	25.197521	24.408489	27.026177
372	1	6.465149	9.564040	15.489481
373	1	29.227709	0.660471	5.506602
374	1	25.618408	24.634952	0.418787
375	1	19.262750	16.324338	30.562277
376	1	27.982568	1.511280	27.574625
377	1	5.725227	18.747596	13.755112
378	1	7.354742	2.362201	11.406158
379	1	3.117317	0.427126	21.346424
380	1	11.802203	4.907988	30.945835
381	1	16.839650	27.195856	9.749234
382	1	5.575667	15.133145	7.951386
383	1	3.345503	28.771785	19.970811
384	1	20.623123	6.594076	22.205868
385	1	30.637209	24.236997	21.036332
386	1	25.678766	28.820950	11.750593
387	1	15.167323	5.230437	19.405353
388	1	22.559816	25.962993	24.116949
389	1	6.825582	30.372316	13.073924
390	1	29.359790	4.920083	9.028737
391	1	18.053775	23.197780	8.781854
392	1	21.273558	8.014666	26.146337
393	1	14.036784	25.682357	19.872501
394	1	27.514813	24.872734	15.221048
395	1	16.726951	1.315773	19.112679
396	1	21.030420	5.133393	11.673586
397	1	4.196428	27.363772	11.894315
398	1	6.498426	3.936561	15.985868
399	1	20.744323	4.589015	25.693713
400	1	21.119711	29.270536	12.813214
401	1	23.013318	11.759287	13.025809
402	1	29.938825	30.032629	12.321117
403	1	18.251885	12.578584	10.040881
404	1	13.767921	2.987809	15.593952
405	1	21.732986	28.369640	7.720164
406	1	15.997565	16.436131	1.773101
407	1	3.592162	13.849161	25.650746
408	1	17.483757	3.899233	13.278445
409	1	26.834268	11.158070	30.784729
410	1	9.404081	4.657888	32.005290
411	1	8.298303	17.586290	19.901623
412	1	4.490589	16.867458	12.585704
413	1	16.459541	2.742961	30.449037
414	1	10.658413	23.912458	4.865348
415	1	0.579627	15.421164	2.893468
416	1	20.952150	25.720767	11.228307
417	1	24.085191	11.902371	16.490084
418	1	7.840861	19.792856	8.668701
419	1	15.292693	7.558747	18.420623
420	1	22.826350	14.373496	24.805170
421	1	14.655535	25.118031	1.509258
422	1	9.678888	31.156571	26.702658
423	1	24.616834	14.491659	17.131058
424	1	31.370663	7.419023	17.414034
425	1	28.161844	28.452572	11.007052
426	1	23.920668	30.530235	25.703043
427	1	27.597303	12.313692	14.212217
428	1	22.949513	28.545523	26.817200
429	1	18.627118	13.124017	29.686690
430	1	30.536510	16.792990	1.778792
431	1	30.658858	19.499420	4.871178
432	1	31.755201	22.001744	8.330060
433	1	23.719542	31.901899	30.074468
434	1	21.696197	15.062702	10.313365
435	1	4.970761	13.102939	30.898575
436	1	29.378104	24.776167	24.394205
437	1	30.466529	12.529486	0.333634
438	1	15.241399	19.114443	8.505697
439	1	25.353339	9.373520	19.851517
440	1	11.613916	5.726019	21.326531
441	1	30.344534	9.659134	29.594327
442	1	24.956512	16.388420	6.068930
443	1	4.486271	25.876699	25.775518
444	1	31.116275	17.959214	26.324803
445	1	31.602848	19.648030	9.100916
446	1	13.626901	24.571191	7.901279
447	1	22.170748	19.306829	31.989743
448	1	19.937609	2.174381	21.970478
449	1	25.514240	23.528832	16.073517
450	1	5.193860	4.394783	12.027851
451	1	2.501316	19.635919	15.924370
452	1	23.510210	20.721353	19.214933
453	1	23.975929	19.704570	11.074363
454	1	12.277551	14.780651	30.091898
455	1	30.467917	2.660412	9.118836
456	1	12.728917	4.207444	19.467891
457	1	13.827329	8.306133	0.661025
458	1	8.275136	6.490270	3.476325
459	1	11.165645	17.926057	13.598472
460	1	31.996257	21.428464	10.811169
461	1	15.914994	31.773859	20.877161
462	1	11.861011	22.527586	3.412013
463	1	2.775850	24.615753	18.076796
464	1	29.521262	20.315835	16.939009
465	1	26.064327	27.249098	7.340678
466	1	12.747536	17.640911	30.044772
467	1	4.543864	29.725148	17.800875
468	1	2.732158	4.863154	25.155887
469	1	19.621971	19.409268	27.374927
470	1	15.427559	4.011463	9.582266
471	1	28.599207	7.405214	9.164667
472	1	27.098326	10.092710	18.247339
473	1	2.406559	5.761066	29.469151
474	1	27.423754	22.475558	7.845761
475	1	17.623402	11.032062	22.366923
476	1	29.541876	30.353544	9.774269
477	1	3.276002	12.005558	5.637498
478	1	20.507959	25.908525	28.579340
479	1	9.132374	21.286166	17.886512
480	1	17.430829	25.825508	19.284807
481	1	14.781971	10.597836	22.079554
482	1	13.096123	3.634861	2.980223
483	1	29.836128	16.815005	12.854969
484	1	24.303891	7.600277	7.222291
485	1	32.052042	28.508912	12.874256
486	1	16.883678	19.899147	18.402445
487	1	6.966945	21.445148	10.602094
488	1	4.991363	23.940856	23.976630
489	1	30.912388	23.182635	1.767362
490	1	28.482209	17.122385	10.723795
491	1	10.704242	12.555726	4.134002
492	1	2.673010	19.922156	28.393750
493	1	4.106134	26.556334	20.784666
494	1	23.347688	8.441697	19.101899
495	1	6.936163	30.829842	8.856439
496	1	5.231342	10.675027	30.912158
497	1	9.627543	2.388675	2.729327
498	1	12.384879	9.843944	12.317480
499	1	10.749916	22.307327	14.398034
500	1	11.981920	23.074312	12.672019
501	1	21.030139	31.906292	12.266491
502	1	4.206830	3.236584	21.479039
503	1	17.403522	16.506326	11.896474
504	1	11.247239	14.959481	5.120549
505	1	29.555664	15.824844	8.767010
506	1	1.427010	13.243191	8.029381
507	1	10.364762	27.376420	16.355297
508	1	2.140685	25.022883	29.977830
509	1	5.802197	18.113248	22.503226
510	1	20.046014	11.621653	17.634081
511	1	4.204259	23.160110	19.533849
512	1	19.593781	6.301072	6.685328
513	1	14.702084	6.599950	11.462097
514	1	16.504894	5.419506	17.401667
515	1	23.521938	19.731246	2.474448
516	1	12.065486	12.119765	13.353411
517	1	26.730172	22.276211	31.448922
518	1	5.433765	31.724786	26.277946
519	1	30.474663	8.434002	32.082803
520	1	20.848151	4.236822	23.339772
521	1	7.045561	20.560535	26.197612
522	1	27.833833	21.702367	18.390640
523	1	3.345859	9.296929	22.941364
524	1	15.352984	6.572449	31.131580
525	1	3.856078	9.757567	27.708423
526	1	23.217493	9.453661	6.795359
527	1	31.561612	26.516316	20.758236
528	1	23.928039	2.549891	29.523112
529	1	17.159939	3.733751	19.256009
530	1	28.798177	5.162655	2.606217
531	1	28.890278	28.034904	27.024995
532	1	2.247078	13.704558	1.951442
533	1	26.208629	9.071960	8.327503
534	1	3.195484	31.511553	27.423379
535	1	6.050053	23.404841	15.085268
536	1	26.944931	28.540907	23.067531
537	1	19.834992	7.555462	1.430559
538	1	23.631869	27.632337	15.957067
539	1	17.251632	10.029203	4.135688
540	1	31.862769	8.756506	25.692180
541	1	3.662571	28.103475	24.653576
542	1	29.522418	7.477108	15.561454
543	1	15.058904	20.324599	28.740183
544	1	24.164327	22.923439	31.238436
545	1	27.428028	19.363107	10.506565
546	1	1.545469	20.401474	1.140996
547	1	2.659191	22.966914	22.956921
548	1	25.194364	18.644442	19.624764
549	1	21.017406	12.035813	28.211368
550	1	16.391623	24.813839	16.062676
551	1	8.526184	18.729685	30.637107
552	1	26.253509	21.078476	20.128553
553	1	5.630146	13.934439	21.491149
554	1	6.662991	7.981455	17.782300
555	1	6.906372	2.503170	3.150589
556	1	29.833231	19.681636	27.863524
557	1	6.304520	8.982362	23.921276
558	1	2.701347	8.559769	25.727255
559	1	10.051251	31.512570	17.071898
560	1	20.371885	14.325099	19.881117
561	1	25.666581	31.005053	3.990218
562	1	4.925334	30.809434	19.975397
563	1	1.908526	26.582555	4.927351
564	1	27.327746	29.027585	6.292843
565	1	13.384110	15.969182	2.109502
566	1	9.207955	26.595360	2.585104
567	1	30.884146	13.857204	4.559749
568	1	12.275511	30.213759	13.287920
569	1	5.822614	27.802856	32.101181
570	1	24.967573	10.054823	27.231412
571	1	31.089787	21.531890	29.386846
572	1	29.368227	17.641937	17.028093
573	1	22.622376	15.093698	20.411772
574	1	10.634395	0.962286	28.624414
575	1	29.430152	26.256442	16.804076
576	1	22.647956	20.345117	16.589103
577	1	13.049764	20.120619	7.122662
578	1	17.438087	25.446283	8.098154
579	1	28.010278	2.997737	10.105167
580	1	2.931572	31.520968	10.838194
581	1	21.618864	18.732674	11.831940
582	1	15.463067	1.188618	6.473654
583	1	25.155193	23.358920	8.522877
584	1	27.612885	21.050148	25.238116
585	1	1.265501	2.942841	7.939451
586	1	0.905577	5.293838	11.648488
587	1	29.679199	27.418743	12.784941
588	1	6.347394	6.589943	12.608890
589	1	14.115822	2.288074	31.479148
590	1	4.731438	20.997660	14.550174
591	1	31.109834	3.187802	32.086960
592	1	20.052580	10.679040	26.187232
593	1	30.563065	5.776867	4.883626
594	1	21.885383	0.695853	9.946608
595	1	0.965924	3.215767	26.183125
596	1	3.681548	11.788727	0.971915
597	1	3.540012	14.519863	9.294100
598	1	26.181177	25.712576	19.500456
599	1	7.361801	30.154743	26.998354
600	1	23.018718	21.820036	1.473684
601	1	17.913767	6.526156	22.267918
602	1	4.260852	16.205747	21.804939
603	1	19.946455	3.230644	16.059462
604	1	2.584821	9.169972	10.212415
605	1	27.379480	15.608487	12.547947
606	1	14.736103	13.448411	30.623572
607	1	10.231663	4.190107	26.652459
608	1	26.416638	18.937201	5.759995
609	1	9.666051	9.588340	0.947145
610	1	25.602230	8.841323	14.299435
611	1	6.360220	32.008632	10.982923
612	1	23.302562	17.430953	1.710770
613	1	22.389925	12.586857	20.628883
614	1	21.703035	29.067427	15.316078
615	1	13.193425	16.589435	19.075749
616	1	11.928198	31.470307	21.998980
617	1	30.155722	12.960055	24.831690
618	1	23.819669	11.202780	4.911139
619	1	17.796219	22.728503	15.297582
620	1	22.244542	6.467844	8.336061
621	1	4.605394	31.709666	8.682172
622	1	20.240641	4.093268	13.767875
623	1	21.474042	15.370725	5.203642
624	1	5.956706	6.382214	1.917570
625	1	2.386915	17.449546	6.106985
626	1	26.231948	13.496238	27.339370
627	1	8.196532	22.572961	1.030855
628	1	23.727717	25.543862	4.068826
629	1	24.170972	19.958297	4.757516
630	1	31.430660	11.870593	9.441166
631	1	30.905089	16.060878	15.306079
632	1	28.591669	8.675727	6.924801
633	1	21.202271	21.084006	28.527540
634	1	17.754706	10.317648	8.413101
635	1	12.158618	15.169142	20.805108
636	1	20.502934	15.163681	25.390684
637	1	15.026823	9.208912	7.773569
638	1	7.033616	28.348042	9.200557
639	1	18.033147	6.075937	2.586621
640	1	24.598641	16.998819	8.620321
641	1	6.408335	0.505968	30.559625
642	1	10.516074	8.262055	12.963746
643	1	8.788207	31.505054	7.213523
644	1	8.090797	11.746313	20.540034
645	1	14.213038	11.675038	26.326202
646	1	22.536365	21.704782	23.362083
647	1	14.267889	22.571881	11.884939
648	1	2.116676	18.353288	26.586854
649	1	5.692702	16.479401	28.329082
650	1	27.057458	6.039771	0.510509
651	1	23.704558	8.668681	4.276526
652	1	4.404999	16.322391	17.343168
653	1	21.995294	29.291164	17.872608
654	1	22.348683	19.313265	27.124015
655	1	16.387218	21.337233	24.606233
656	1	4.672005	23.701348	1.536955
657	1	25.987105	17.330935	14.165841
658	1	16.601312	14.114670	14.096917
659	1	1.585668	11.850638	16.417265
660	1	26.631293	4.403967	5.547289
661	1	31.054389	14.289562	22.743769
662	1	3.560202	30.578835	6.109807
663	1	16.228291	16.681560	26.755952
664	1	18.121149	26.452505	5.975555
665	1	2.837610	20.292994	3.447680
666	1	3.841254	13.427623	23.145578
667	1	1.741950	1.539240	5.854639
668	1	9.649293	30.396039	22.511595
669	1	11.416548	22.386541	19.312238
670	1	9.846214	13.325357	13.987092
671	1	17.122306	29.737938	29.550747
672	1	29.325526	12.440033	16.041360
673	1	26.895568	0.742537	9.347403
674	1	27.801117	5.807039	20.286011
675	1	21.773246	23.654071	32.126502
676	1	14.095814	28.359403	12.668066
677	1	5.349662	30.957930	28.810831
678	1	14.990412	18.806233	30.864059
679	1	26.682248	7.600139	18.284770
680	1	14.640729	17.620773	25.026869
681	1	8.848490	8.363297	19.177531
682	1	2.885921	29.047145	4.146414
683	1	30.443000	5.063938	26.691145
684	1	3.505711	17.087156	15.071520
685	1	17.274368	29.856981	22.414400
686	1	8.808199	0.326589	12.539110
687	1	31.964866	1.049783	18.445372
688	1	21.292437	23.227646	2.893282
689	1	18.520169	12.553813	12.554631
690	1	13.293846	0.736524	14.576318
691	1	30.728965	6.516628	10.506873
692	1	24.101522	22.116052	12.086428
693	1	31.475906	13.512839	17.201570
694	1	15.304601	31.794934	26.262293
695	1	10.807905	22.782766	16.795978
696	1	5.788541	30.675564	15.544948
697	1	0.352702	17.742762	12.782077
698	1	22.850445	30.142549	23.336620
699	1	9.246832	29.704988	8.848761
700	1	6.583536	20.167396	23.622351
701	1	27.630578	30.804653	11.601536
702	1	12.347976	17.037657	4.141337
703	1	21.512516	4.197850	6.913602
704	1	30.031284	17.702478	23.630337
705	1	16.783576	10.872063	11.235701
706	1	22.761559	31.057626	14.042009
707	1	25.255362	27.075406	27.031880
708	1	3.317881	29.577849	29.289754
709	1	1.200209	19.301138	21.364857
710	1	5.820472	14.286756	26.802662
711	1	3.963025	24.323225	28.031860
712	1	20.065073	30.970230	14.418527
713	1	3.929588	2.462784	8.249656
714	1	0.498777	21.696077	24.292793
715	1	1.620967	23.149130	9.813182
716	1	5.264257	28.078920	29.714681
717	1	23.663764	25.477667	19.913823
718	1	5.648168	6.068506	10.149779
719	1	21.715119	20.703538	3.807717
720	1	6.839539	21.107692	5.052301
721	1	18.262037	24.411145	27.856511
722	1	9.836256	15.289449	7.225254
723	1	4.911857	16.856263	5.926853
724	1	18.486830	21.386416	17.238419
725	1	2.621910	7.970832	14.509217
726	1	21.284488	24.330766	15.905364
727	1	7.732230	31.036591	0.486544
728	1	14.234382	29.461803	26.590924
729	1	31.172571	30.559480	19.117546
730	1	30.305168	9.142460	13.676814
731	1	28.851072	18.088501	21.302552
732	1	1.476437	15.509867	15.969029
733	1	24.819617	2.902275	22.525359
734	1	6.713736	27.838018	11.862159
735	1	22.277492	10.398094	17.225624
736	1	26.611097	1.214435	11.915069
737	1	26.772651	8.357619	10.805288
738	1	11.953097	22.110529	8.345736
739	1	25.922441	10.630563	10.383257
740	1	16.881103	2.781862	4.638367
741	1	11.738485	16.325680	32.012048
742	1	25.106926	5.296326	22.983318
743	1	31.422825	29.048256	26.677639
744	1	4.904680	5.755897	21.513120
745	1	7.369397	16.013641	6.654998
746	1	19.861561	17.076002	15.771220
747	1	27.927512	13.930577	19.740430
748	1	15.527465	20.847503	6.629952
749	1	8.565713	22.704377	6.017942
750	1	10.055563	11.814156	22.451548
751	1	12.027427	29.513529	31.525433
752	1	16.404226	7.559754	3.949479
753	1	27.208877	26.234341	1.599571
754	1	11.008245	4.239032	17.298847
755	1	28.945090	0.537702	8.213552
756	1	21.806502	27.847631	10.854849
757	1	0.513098	3.820075	5.325110
758	1	18.699015	12.665056	27.126689
759	1	5.995377	22.824304	31.454651
760	1	12.172597	24.815906	24.492731
761	1	2.647572	20.633762	23.183522
762	1	3.411925	18.264004	1.728585
763	1	28.290531	27.144954	14.861167
764	1	10.149108	27.336313	13.725013
765	1	30.092216	11.532005	13.808156
766	1	27.170456	13.840659	2.158611
767	1	11.675841	29.288365	20.930882
768	1	12.627376	30.818105	16.134229
769	1	15.378250	21.263964	31.276841
770	1	10.953709	4.772476	24.270017
771	1	14.694771	26.507336	31.156436
772	1	28.376671	7.719671	1.501123
773	1	31.272706	0.364192	8.811836
774	1	6.658661	22.069482	7.956236
775	1	31.381918	22.152684	5.839972
776	1	29.859215	2.834112	2.237454
777	1	25.179227	12.099569	29.241344
778	1	8.446218	23.570334	14.270859
779	1	17.776483	29.622821	14.143440
780	1	12.586588	25.193603	31.945660
781	1	21.266826	14.819953	15.637819
782	1	18.950634	0.364245	23.403370
783	1	1.256143	3.394503	17.603224
784	1	17.654968	3.742254	2.619577
785	1	15.768589	4.448037	15.257340
786	1	10.080585	27.885280	22.405765
787	1	10.971635	26.943108	24.749401
788	1	26.332718	27.089149	10.000004
789	1	12.939947	13.071082	15.778466
790	1	17.091139	17.232494	31.310102
791	1	17.418810	8.163120	17.039986
792	1	26.492528	11.561595	1.468433
793	1	5.646998	25.007939	3.771090
794	1	23.125016	27.973701	3.940953
795	1	21.493856	28.085485	24.756332
796	1	24.395324	26.634120	2.016212
797	1	23.655885	8.627982	1.615844
798	1	14.467305	31.935078	12.328168
799	1	1.623594	18.167880	8.668249
800	1	12.925712	21.687516	17.374822
801	1	27.422287	15.765505	26.919140
802	1	23.532250	21.363468	8.938839
803	1	23.776926	31.871824	5.754456
804	1	19.956644	17.254052	4.231842
805	1	9.051097	18.316812	25.333697
806	1	31.802506	27.702454	1.261786
807	1	0.358896	5.267502	21.407588
808	1	2.850478	12.082077	13.301734
809	1	28.360661	14.357234	4.380389
810	1	15.334625	24.967019	5.511862
811	1	1.418216	8.098968	7.331313
812	1	26.469775	1.161804	23.129287
813	1	27.953536	30.905682	23.939372
814	1	13.256094	4.139535	8.255956
815	1	20.407310	16.318077	21.373839
816	1	30.059022	22.249342	12.029847
817	1	14.190821	7.482888	25.000514
818	1	8.694362	3.262528	9.303137
819	1	10.176966	13.567769	20.622511
820	1	6.476373	9.599067	19.818522
821	1	10.014179	20.297508	13.274949
822	1	16.263317	11.678331	13.582450
823	1	27.439539	16.641363	5.226096
824	1	28.828052	18.408065	6.244084
825	1	21.861544	31.414307	16.354499
826	1	10.481967	25.418115	22.296004
827	1	24.914491	15.487307	23.912397
828	1	31.952565	23.578912	26.097859
829	1	13.000463	11.153198	3.712516