ITEM: TIMESTEP
0
ITEM: NUMBER OF ATOMS
2000
ITEM: BOX BOUNDS pp pp pp
0.299875	32.130125
0.299875	32.130125
0.299875	32.130125
ITEM: ATOMS id type x y z
1	1	8.013472	21.691762	22.217481
2	1	25.698675	0.657430	28.727548
3	1	19.931111	11.636474	8.416959
4	1	16.160979	26.464408	11.903478
5	1	23.409450	19.801052	24.685727
6	1	3.811505	19.061825	21.183781
7	1	22.799291	23.676460	25.413148
8	1	9.633923	18.616206	18.052653
9	1	15.054394	17.008646	17.050313
10	1	21.801170	3.681042	31.125634
11	1	19.491662	18.776876	8.017755
12	1	6.500519	4.815071	31.761064
13	1	22.338764	11.918211	24.174932
14	1	4.214618	6.648811	5.452913
15	1	3.438196	30.680815	25.044755
16	1	25.957278	19.583839	24.061763
17	1	7.440367	26.526986	30.451213
18	1	15.535597	29.634471	6.308357
19	1	27.873130	18.364092	12.909265
20	1	2.995253	24.740563	8.591661
21	1	31.691494	15.322006	12.489474
22	1	23.616069	28.614929	13.462720
23	1	8.859867	29.352600	17.441651
24	1	20.573984	31.522168	18.497863
25	1	16.635714	29.348473	16.580669
26	1	23.223731	17.268446	28.142040
27	1	30.234126	28.618248	5.187690
28	1	24.393479	26.226831	14.191588
29	1	9.080316	29.001078	20.154551
30	1	17.982478	26.907008	16.286371
31	1	27.915401	2.995437	12.638330
32	1	25.703277	1.322236	31.261848
33	1	21.313341	3.754431	19.329908
34	1	26.191310	20.495053	3.445154
35	1	24.773004	13.000308	24.465817
36	1	5.814115	0.642866	1.354030
37	1	22.004103	18.885010	22.976242
38	1	18.113650	31.834330	1.122131
39	1	25.448541	17.519939	25.548402
40	1	23.645340	18.360902	17.681990
41	1	28.887854	0.553070	21.955345
42	1	17.285300	18.731185	6.748119
43	1	8.448322	26.566802	23.782947
44	1	24.222991	21.439178	14.867906
45	1	22.722113	16.117132	22.772069
46	1	16.260974	27.415779	4.863871
47	1	21.516606	19.208675	18.759817
48	1	16.940891	15.015804	16.527407
49	1	21.538341	9.535547	0.718109
50	1	25.085412	10.279832	2.889760
51	1	10.964227	28.177115	3.683809
52	1	1.364878	7.369735	19.413544
53	1	5.505313	8.378094	26.046085
54	1	5.937705	3.754811	9.669248
55	1	12.417035	16.360960	25.359411
56	1	26.272612	1.715012	20.651306
57	1	15.175694	14.442113	9.068920
58	1	18.777508	15.187123	23.603279
59	1	11.144433	22.387219	25.765935
60	1	21.083881	18.375789	2.194954
61	1	11.536493	17.637271	6.605645
62	1	9.125648	9.096774	15.078942
63	1	13.785594	28.225641	24.507988
64	1	5.147800	4.478425	19.359554
65	1	8.709959	13.174041	2.320787
66	1	24.617402	25.645663	8.735272
67	1	25.095118	6.506126	5.061131
68	1	30.086335	25.719513	8.381051
69	1	25.486313	31.131780	10.824327
70	1	19.070768	3.527553	11.346478
71	1	22.180385	25.462181	21.626341
72	1	4.604404	14.044908	1.244395
73	1	22.211719	2.356018	22.506197
74	1	2.288016	21.564404	14.353192
75	1	30.543931	2.820994	22.121623
76	1	24.026747	18.535833	6.726571
77	1	23.427436	8.460059	31.020546
78	1	23.057939	22.715267	16.912766
79	1	12.118751	24.445243	20.596163
80	1	1.027368	28.565117	15.421758
81	1	7.297165	19.547914	18.395716
82	1	0.882039	20.138984	30.295447
83	1	24.136136	11.248174	19.011429
84	1	10.577947	30.278929	10.970408
85	1	28.874495	30.566064	19.724699
86	1	13.062845	13.224597	3.026596
87	1	30.655387	6.945509	2.695874
88	1	23.385383	4.197672	1.712077
89	1	15.825893	17.596175	29.071167
90	1	14.426405	2.255507	4.530080
91	1	2.716023	3.227264	30.061492
92	1	0.795750	28.789147	20.039511
93	1	14.743048	15.675053	21.060676
94	1	7.952948	30.081094	11.022363
95	1	19.330604	14.653553	11.529506
96	1	1.241738	19.177967	11.081700
97	1	6.172012	18.536382	30.146894
98	1	10.089998	5.494569	10.028032
99	1	6.381998	29.787497	1.643380
100	1	19.473672	17.739330	13.058253
101	1	19.193442	11.814340	31.923426
102	1	21.318217	16.838328	31.958596
103	1	8.008012	18.969135	3.714520
104	1	7.103466	16.426884	26.178760
105	1	6.968152	25.048061	25.187710
106	1	19.991967	18.851460	21.456090
107	1	25.522584	4.103299	20.488398
108	1	22.535679	20.838942	13.172064
109	1	5.524068	23.457528	26.515116
110	1	4.827074	20.856725	12.012076
111	1	16.273082	3.363562	28.191178
112	1	13.453417	4.037014	24.852107
113	1	20.325186	1.575043	0.431811
114	1	19.992821	5.441513	30.389685
115	1	7.184427	11.891543	30.051207
116	1	10.604729	17.285443	23.626986
117	1	6.664142	7.643395	8.703159
118	1	20.827965	17.169909	27.190283
119	1	5.269391	29.452100	7.623738
120	1	30.289523	20.287780	7.204523
121	1	20.238998	8.698591	13.056647
122	1	23.347708	30.349071	3.502906
123	1	1.215083	15.670884	8.371526
124	1	3.009693	29.513915	8.449892
125	1	8.308579	16.230793	23.858012
126	1	0.923672	4.734174	31.394844
127	1	9.619148	4.544014	22.383345
128	1	0.591971	8.692347	3.088910
129	1	3.165633	0.449701	29.913347
130	1	23.578775	4.556773	18.782917
131	1	28.760742	5.320585	6.591651
132	1	19.517583	29.517220	19.565040
133	1	31.942370	4.591409	9.401404
134	1	3.671563	11.220810	10.614560
135	1	17.307590	5.145998	26.353937
136	1	2.166751	3.569711	15.292218
137	1	6.939658	15.878206	12.040014
138	1	12.001733	9.807331	31.826518
139	1	13.949353	0.725632	22.264419
140	1	26.782547	12.616945	9.425233
141	1	16.557316	4.632775	0.564421
142	1	32.003185	7.759111	15.136780
143	1	1.857400	26.477185	16.701727
144	1	27.438294	9.682642	2.953076
145	1	9.424800	24.165401	2.624730
146	1	6.689503	27.432140	2.869030
147	1	13.788873	18.302212	20.742803
148	1	6.219855	13.970605	10.028541
149	1	16.277524	6.102963	13.319074
150	1	16.718894	29.723620	27.119764
151	1	27.950252	7.591492	13.599827
152	1	7.456737	8.910859	13.274086
153	1	21.110201	11.046623	30.564140
154	1	29.029868	29.674380	21.974609
155	1	24.629312	15.570184	12.831626
156	1	6.546165	21.438434	16.649094
157	1	8.835296	26.211102	26.287694
158	1	21.142267	5.730808	3.015873
159	1	28.214425	12.852431	32.065084
160	1	27.918799	16.220903	2.737319
161	1	31.649943	18.608666	16.908160
162	1	31.513010	1.492380	4.429811
163	1	28.004164	21.178641	12.424699
164	1	10.354777	29.595584	15.346230
165	1	3.746796	23.212038	30.719515
166	1	4.282807	28.681151	2.026914
167	1	22.101251	9.886533	11.672293
168	1	19.182488	4.579658	18.017156
169	1	12.001163	17.932631	17.494843
170	1	6.363001	26.067939	16.529614
171	1	28.030618	29.785673	31.251265
172	1	14.330655	11.581805	11.869707
173	1	8.441475	15.357137	14.191447
174	1	3.146515	24.909857	3.243867
175	1	8.969918	5.892789	25.345333
176	1	27.013409	24.268586	23.041369
177	1	14.373402	15.295229	28.715994
178	1	21.934916	15.782259	29.739910
179	1	25.413317	11.301533	14.493086
180	1	21.828654	24.675174	4.948365
181	1	25.843051	7.706485	2.971535
182	1	16.354260	11.009756	6.480412
183	1	29.664737	25.203160	1.355907
184	1	23.096095	10.644904	29.094318
185	1	20.348793	26.600425	22.772197
186	1	4.337167	12.746593	3.359897
187	1	4.355434	16.474140	26.251071
188	1	5.869385	12.861677	24.621736
189	1	2.366838	27.296899	2.376384
190	1	9.320341	6.026478	27.859406
191	1	12.885161	7.472922	6.265504
192	1	26.802333	16.567456	20.148560
193	1	10.033592	10.364819	7.961763
194	1	17.625138	7.254863	16.344948
195	1	17.079359	14.537107	5.468888
196	1	31.257250	10.861364	4.167526
197	1	14.878036	30.801230	28.763263
198	1	26.709705	2.838953	29.477313
199	1	19.263923	9.141504	18.764136
200	1	24.406856	17.939692	23.046032
201	1	12.212063	15.559556	27.722006
202	1	16.362199	25.234832	29.471404
203	1	26.671724	31.873220	16.398032
204	1	18.001238	29.597931	9.677276
205	1	9.352096	0.563432	30.686277
206	1	16.341249	1.703724	8.652917
207	1	30.639609	0.600501	28.686341
208	1	17.608747	15.362391	9.519839
209	1	5.783558	11.916003	16.255357
210	1	21.485873	11.992993	15.547113
211	1	28.770999	25.991528	10.665168
212	1	23.759482	15.583877	3.739652
213	1	9.064647	17.697574	7.660200
214	1	14.121748	23.793753	3.508351
215	1	1.856221	26.735868	19.322043
216	1	10.574818	25.191544	17.693890
217	1	16.693329	22.288866	11.034958
218	1	17.826891	3.394119	9.313118
219	1	17.695548	11.032960	17.595648
220	1	6.539738	18.183064	25.023065
221	1	19.794077	21.915562	21.073881
222	1	17.053415	27.472681	30.720774
223	1	29.409361	8.227769	11.491035
224	1	29.599647	21.354345	3.030051
225	1	25.171542	25.947648	29.495188
226	1	7.202671	26.153880	9.582910
227	1	17.442097	31.661948	15.395959
228	1	7.078338	20.564337	31.713981
229	1	15.070033	3.070799	17.673274
230	1	1.631155	13.778670	12.254466
231	1	8.499656	30.725910	4.952864
232	1	31.902913	12.729041	2.490395
233	1	2.872798	0.636056	0.899126
234	1	6.452623	1.328650	16.334641
235	1	15.176151	3.039550	23.063345
236	1	13.360995	17.822058	8.241306
237	1	17.951794	31.546164	17.973365
238	1	2.911157	15.676598	23.983421
239	1	5.939203	8.358085	6.659627
240	1	1.498561	22.582521	18.628882
241	1	19.153862	21.925756	10.687999
242	1	18.794564	21.755622	27.844806
243	1	14.152152	9.356282	10.454570
244	1	2.415507	11.534429	22.345339
245	1	31.224604	1.318031	12.933056
246	1	7.961726	24.527105	7.645939
247	1	14.642923	15.101982	15.436164
248	1	10.602617	13.306739	11.745063
249	1	25.792394	23.608036	29.427344
250	1	24.853768	16.064035	21.440547
251	1	12.783020	10.847682	17.290896
252	1	14.860643	15.810185	12.933445
253	1	21.470234	9.677319	4.924852
254	1	10.701299	9.121252	17.354840
255	1	2.651533	5.042667	22.659951
256	1	12.882058	25.313290	5.461066
257	1	14.030247	25.700566	15.471165
258	1	21.014008	25.957894	31.199776
259	1	4.421348	27.961776	15.784805
260	1	6.149623	29.850489	24.523309
261	1	9.556879	29.793953	31.599210
262	1	10.433009	13.770511	28.054755
263	1	21.764416	21.277035	10.703993
264	1	9.032317	7.432165	2.764126
265	1	5.551123	24.656273	8.254647
266	1	2.096585	16.273930	30.560939
267	1	2.263013	22.900112	2.201829
268	1	29.809715	5.523605	22.337645
269	1	5.137780	12.011197	28.268085
270	1	5.567318	14.368970	17.294245
271	1	12.590916	20.467007	20.778037
272	1	16.796464	9.867737	15.373530
273	1	11.810090	5.216101	28.561451
274	1	9.846663	20.248771	26.956210
275	1	4.195709	0.963616	15.334004
276	1	25.998917	4.567745	13.741703
277	1	24.898079	25.261061	24.772909
278	1	2.338798	17.674916	17.193325
279	1	27.401430	29.677341	15.742470
280	1	7.765279	10.308399	11.252124
281	1	8.695322	11.787987	32.181806
282	1	26.524689	18.955417	21.542309
283	1	27.297574	15.015328	9.944342
284	1	18.329744	25.353054	23.302405
285	1	19.694551	7.024967	17.184709
286	1	2.213909	3.090665	1.068408
287	1	30.844529	1.761895	6.853379
288	1	29.475691	14.899575	11.160872
289	1	29.652532	2.669408	14.560548
290	1	7.005699	1.923590	22.484596
291	1	5.539992	2.419311	5.719441
292	1	6.331748	31.543916	6.339733
293	1	1.747568	2.558587	3.662117
294	1	29.822812	9.221166	2.798367
295	1	9.948124	12.739620	24.996871
296	1	23.212546	14.426009	31.866799
297	1	17.426694	14.418734	25.917061
298	1	18.879863	8.688820	26.968988
299	1	18.549037	7.605848	9.181720
300	1	13.178348	27.303691	0.910574
301	1	6.141165	2.099312	25.728491
302	1	4.925395	4.175630	26.449312
303	1	8.154209	15.261488	27.984872
304	1	7.750991	6.472095	6.334597
305	1	2.646588	15.975640	1.180338
306	1	3.982743	25.173660	15.800605
307	1	1.202878	23.994654	4.636412
308	1	10.932365	18.550083	31.571750
309	1	1.175260	11.941144	0.311756
310	1	3.073076	25.394518	23.508517
311	1	27.579665	11.294832	7.112053
312	1	2.243065	15.796138	13.532571
313	1	10.993443	30.615300	3.822149
314	1	17.549304	29.584210	31.928081
315	1	21.836648	11.397817	6.613432
316	1	13.718272	11.239782	6.871357
317	1	4.428262	31.392856	13.051210
318	1	14.618155	11.925023	18.873485
319	1	13.097885	19.251096	10.174971
320	1	23.184095	31.842321	18.599047
321	1	26.854773	21.536010	22.513761
322	1	29.164943	16.512320	19.332539
323	1	28.983669	4.484225	24.521728
324	1	12.756182	29.215455	28.650863
325	1	12.036215	1.654183	20.207040
326	1	1.298421	6.809422	9.685805
327	1	12.111979	8.952744	24.830852
328	1	28.624979	27.765575	8.540199
329	1	19.286414	14.888037	4.195897
330	1	29.137256	8.620735	17.933607
331	1	7.205416	23.144351	3.486686
332	1	4.858625	10.140541	3.116039
333	1	10.976688	17.876576	27.226334
334	1	1.846318	30.157068	21.733449
335	1	7.550448	28.686911	22.673048
336	1	28.961869	15.585728	6.531439
337	1	12.361743	2.624468	29.823090
338	1	20.634515	11.270967	22.298420
339	1	7.686431	29.298187	6.855689
340	1	25.873034	24.563871	10.722022
341	1	10.971375	14.211125	9.433541
342	1	24.404095	1.340518	10.077947
343	1	29.474356	0.594430	3.004338
344	1	17.510096	17.946554	9.343545
345	1	11.465781	20.513857	1.688539
346	1	7.498373	16.417419	30.258368
347	1	27.464609	20.092893	27.736075
348	1	28.314338	16.647371	14.926281
349	1	7.002641	2.854240	29.867980
350	1	16.901706	31.701958	12.714173
351	1	22.636790	7.865239	21.528162
352	1	1.741254	30.766561	31.263354
353	1	8.221052	15.880235	2.556153
354	1	22.486522	10.291451	26.438707
355	1	17.933552	2.315050	0.480525
356	1	20.921106	13.426365	13.507135
357	1	17.744453	8.635405	2.085152
358	1	21.616519	12.314021	1.281919
359	1	15.980355	29.777643	24.647989
360	1	2.825095	3.966098	27.591705
361	1	10.683479	26.547893	5.412534
362	1	25.416788	2.549759	27.175657
363	1	24.644818	9.848867	12.316813
364	1	17.349225	25.698912	25.576921
365	1	27.823188	25.203220	3.823879
366	1	28.771510	10.199445	4.976533
367	1	28.320729	19.571703	23.267879
368	1	27.662656	20.554070	1.263475
369	1	2.505373	1.961023	19.415012
370	1	27.655806	3.385290	19.044746
371	1	25.185045	24.414633	26.974621
372	1	6.431588	9.522539	15.552618
373	1	29.170612	0.677945	5.470504
374	1	25.659601	24.657428	0.366790
375	1	19.296097	16.333850	30.582831
376	1	27.955633	1.510112	27.547040
377	1	5.709540	18.738924	13.782416
378	1	7.337339	2.439122	11.368504
379	1	3.122364	0.429682	21.340521
380	1	11.775214	4.851353	31.061060
381	1	16.850372	27.219137	9.708221
382	1	5.687525	15.212661	7.920440
383	1	3.351421	28.742168	19.983558
384	1	20.584797	6.517919	22.187750
385	1	30.675941	24.182491	21.092041
386	1	25.670461	28.783041	11.711663
387	1	15.192118	5.199250	19.360542
388	1	22.573422	25.919746	24.051280
389	1	6.842478	30.388795	13.086711
390	1	29.334075	4.864682	9.040398
391	1	18.087210	23.197313	8.718690
392	1	21.262436	8.032493	26.167832
393	1	14.032734	25.687697	19.888274
394	1	26.390393	25.294869	15.139879
395	1	16.716447	1.283166	19.088807
396	1	21.095127	5.059452	11.610662
397	1	4.210600	27.351901	11.909278
398	1	6.487229	3.907496	15.988389
399	1	20.711211	4.582077	25.693745
400	1	21.132327	29.230006	12.737250
401	1	23.054292	11.733335	13.038809
402	1	29.915104	29.906157	12.333926
403	1	18.276103	12.547715	10.074867
404	1	13.750850	3.024274	15.550632
405	1	21.739256	28.410882	7.705361
406	1	16.007156	16.381587	1.798504
407	1	3.626474	13.913926	25.652698
408	1	17.401286	3.897250	13.150721
409	1	26.828290	11.139829	30.815801
410	1	9.429571	4.730691	32.135878
411	1	8.290724	17.600855	19.918874
412	1	4.474823	16.862745	12.601687
413	1	16.411305	2.790035	30.536478
414	1	10.658549	23.905636	4.877810
415	1	0.672923	15.389463	2.826324
416	1	20.976290	25.713252	11.105799
417	1	24.088634	11.877798	16.503680
418	1	7.841797	19.813667	8.651817
419	1	15.305700	7.517645	18.395725
420	1	22.811126	14.370840	24.823469
421	1	14.662926	25.106464	1.491719
422	1	9.712870	31.182389	26.669343
423	1	24.641481	14.471398	17.110649
424	1	31.351943	7.386101	17.441522
425	1	28.167440	28.403935	10.987493
426	1	23.885937	30.505790	25.680697
427	1	27.678594	12.242100	14.156350
428	1	22.957554	28.520302	26.795659
429	1	18.673523	13.099784	29.713177
430	1	30.593446	16.692463	1.705241
431	1	30.747191	19.481442	4.871365
432	1	31.771081	22.017235	8.294252
433	1	23.719840	31.899360	30.051992
434	1	21.706590	15.003430	10.350202
435	1	5.001075	13.045640	30.841959
436	1	29.396574	24.766007	24.371957
437	1	30.478485	12.495526	0.333655
438	1	15.251205	19.123157	8.491601
439	1	25.341810	9.358125	19.869779
440	1	11.625585	5.717122	21.294476
441	1	30.279085	9.664106	29.487231
442	1	24.945955	16.403510	6.028080
443	1	4.536506	25.968429	25.803109
444	1	31.039074	17.941496	26.309331
445	1	31.617659	19.672800	9.114489
446	1	13.638171	24.572325	7.864534
447	1	22.258902	19.329429	31.994967
448	1	19.669861	1.935694	22.304393
449	1	25.396358	23.230405	16.018473
450	1	5.134134	4.419940	12.012276
451	1	2.813262	19.717715	15.975087
452	1	23.514127	20.717523	19.164396
453	1	23.970398	19.695756	11.025911
454	1	12.250012	14.667318	30.139319
455	1	30.428901	2.598345	9.152654
456	1	12.734702	4.189643	19.431146
457	1	13.886559	8.393857	0.668642
458	1	7.199017	9.137036	1.845614
459	1	11.177508	17.960243	13.605736
460	1	31.975230	21.487809	10.802545
461	1	15.912694	31.753948	20.871724
462	1	11.861561	22.534718	3.393956
463	1	2.789844	24.601965	18.129774
464	1	29.519208	20.312165	16.936403
465	1	26.100272	27.257485	7.271401
466	1	12.825225	17.547837	30.046238
467	1	4.546136	29.703334	17.820148
468	1	2.716871	4.830577	25.127797
469	1	19.628646	19.413444	27.404116
470	1	15.387860	4.102678	9.516074
471	1	28.698506	7.435360	9.199992
472	1	27.092952	10.064635	18.260632
473	1	2.366456	5.730380	29.402936
474	1	27.432174	22.479315	7.722359
475	1	17.663017	11.051029	22.442219
476	1	29.584593	30.272826	9.756166
477	1	3.535606	12.159360	5.589784
478	1	20.528584	25.938122	28.536866
479	1	9.140131	21.287237	17.890810
480	1	17.391844	25.753420	19.246667
481	1	14.730247	10.573648	22.182608
482	1	13.326951	3.274103	2.476338
483	1	29.813186	16.847411	12.832541
484	1	24.342954	7.613485	7.206950
485	1	32.028108	28.448287	12.891453
486	1	16.838666	19.919820	18.449724
487	1	6.973947	21.478817	10.609815
488	1	5.022962	23.964764	24.064323
489	1	31.001521	23.165094	1.771077
490	1	28.465994	17.175536	10.706030
491	1	10.730816	12.538880	4.235099
492	1	2.711681	19.977794	28.394832
493	1	4.118190	26.531903	20.833381
494	1	23.352114	8.417521	19.094477
495	1	6.931819	30.891369	8.844079
496	1	5.218093	10.625652	30.725855
497	1	9.356464	2.976754	2.841482
498	1	12.458225	9.901769	12.398443
499	1	10.819977	22.312458	14.374863
500	1	12.024424	23.162448	12.665688
501	1	21.009659	31.848027	12.235417
502	1	4.185720	3.193205	21.474090
503	1	17.435644	16.516619	11.908555
504	1	11.307225	14.931258	5.199495
505	1	29.506452	15.949203	8.744335
506	1	0.309257	13.082739	7.667458
507	1	10.332607	27.384986	16.353238
508	1	2.119452	25.176089	30.013059
509	1	5.757198	18.150189	22.507229
510	1	20.100620	11.535797	17.636095
511	1	4.247765	23.151748	19.579806
512	1	19.542167	6.199637	6.681074
513	1	14.588187	6.680546	11.455748
514	1	16.524217	5.303702	17.352416
515	1	23.568812	19.719425	2.436624
516	1	12.172606	12.228591	13.380844
517	1	26.771645	22.310776	31.438480
518	1	5.459957	31.734063	26.267721
519	1	30.446451	8.422039	32.060951
520	1	20.798108	4.191271	23.358664
521	1	7.262354	20.383137	26.320506
522	1	27.865566	21.779280	18.273244
523	1	3.289845	9.264282	22.982001
524	1	15.418403	6.612415	31.134277
525	1	3.814777	9.795300	27.570640
526	1	23.228352	9.462144	6.845161
527	1	31.582500	26.488570	20.806383
528	1	23.917701	2.545716	29.505675
529	1	17.185308	3.678483	19.218067
530	1	28.798069	5.147648	2.596586
531	1	28.890976	27.971286	26.996320
532	1	2.338110	13.551504	1.897421
533	1	26.298861	9.153109	8.318657
534	1	3.181096	31.518004	27.395932
535	1	6.073064	23.409209	15.099545
536	1	26.933848	28.501974	23.035719
537	1	19.864579	7.543031	1.456904
538	1	23.543601	27.735900	16.023279
539	1	17.294413	9.999821	4.212216
540	1	31.741677	8.647048	25.543359
541	1	3.678710	28.127030	24.657469
542	1	29.484861	7.409328	15.620137
543	1	15.083252	20.217995	28.779102
544	1	24.214767	22.896651	31.228203
545	1	27.416993	19.407721	10.481903
546	1	2.850753	21.145608	-1.199435
547	1	2.740052	22.921664	23.019814
548	1	25.176147	18.640688	19.560698
549	1	21.012151	12.026502	28.254229
550	1	16.325743	24.800572	16.013662
551	1	8.634015	18.652226	30.770616
552	1	26.228223	21.088441	20.020606
553	1	5.625429	13.960968	21.473528
554	1	6.653262	7.962300	17.805541
555	1	6.833682	2.447845	3.132635
556	1	29.775807	19.638363	27.916071
557	1	6.302654	9.025766	23.905954
558	1	2.681386	8.507128	25.653268
559	1	10.049319	31.516536	17.088707
560	1	20.351432	14.392932	19.890545
561	1	25.675910	31.043555	3.961694
562	1	4.917871	30.801866	20.000175
563	1	1.928172	26.635276	4.901434
564	1	27.511628	29.002379	6.311919
565	1	13.422314	15.871322	2.158194
566	1	9.187489	26.700002	2.655477
567	1	31.086265	13.750186	4.537247
568	1	12.243828	30.279465	13.260533
569	1	5.781995	27.810234	32.017200
570	1	24.963282	10.056036	27.249311
571	1	30.949072	21.503294	29.453941
572	1	29.320310	17.636470	16.993920
573	1	22.604150	15.086941	20.406051
574	1	10.712352	1.024145	28.655559
575	1	29.520751	26.228801	16.847798
576	1	22.614940	20.321566	16.645456
577	1	13.045718	20.139314	7.087418
578	1	17.453629	25.463412	8.072229
579	1	27.994087	2.944647	10.117762
580	1	2.931069	31.522033	10.998158
581	1	21.607200	18.716403	11.780172
582	1	15.437953	1.215275	6.453530
583	1	25.178841	23.359444	8.462400
584	1	27.540166	21.033294	25.185013
585	1	1.281493	2.872314	7.845826
586	1	0.860188	5.263919	11.670940
587	1	29.618008	27.238992	12.819261
588	1	6.251902	6.622636	12.605639
589	1	14.097162	2.540510	31.837758
590	1	4.758898	20.997438	14.585512
591	1	31.056669	3.210454	32.111396
592	1	20.049767	10.684915	26.222334
593	1	30.640368	5.743048	4.934164
594	1	21.897654	0.690011	9.948560
595	1	0.954320	3.163689	26.133499
596	1	3.741558	11.612737	0.864255
597	1	3.822751	14.864959	9.271986
598	1	26.204432	25.684448	19.451846
599	1	7.386747	30.179483	27.079580
600	1	23.043234	21.808007	1.436304
601	1	17.956564	6.437885	22.236212
602	1	4.255388	16.221787	21.782792
603	1	19.998331	3.073696	16.076388
604	1	2.492493	8.980219	10.184280
605	1	27.360047	15.655644	12.521477
606	1	14.743966	13.397844	30.630623
607	1	10.257430	4.160285	26.667346
608	1	26.463443	18.996529	5.684761
609	1	9.505476	9.486104	0.995007
610	1	25.585865	8.804559	14.320684
611	1	6.389511	32.042164	11.008355
612	1	23.327497	17.399257	1.710960
613	1	22.351128	12.578995	20.635867
614	1	21.659646	29.038877	15.252611
615	1	13.181521	16.637777	19.104332
616	1	11.956585	31.482690	21.985833
617	1	30.131286	13.003074	24.791303
618	1	23.847252	11.197837	4.951340
619	1	17.796631	22.729718	15.262824
620	1	22.338686	6.441414	8.422906
621	1	4.648927	31.750795	8.880484
622	1	20.332766	4.013137	13.684256
623	1	21.483481	15.395047	5.197675
624	1	5.775863	6.481967	1.915269
625	1	2.712842	17.554438	5.799909
626	1	26.246715	13.434867	27.376328
627	1	8.223877	22.505463	1.146499
628	1	23.751832	25.534458	4.042611
629	1	24.223768	19.977904	4.689885
630	1	31.218744	11.769958	9.574847
631	1	30.928922	16.206807	15.216639
632	1	28.679640	8.723865	6.962487
633	1	21.218452	21.093997	28.519064
634	1	17.745797	10.314052	8.469284
635	1	12.167197	15.189422	20.814888
636	1	20.488624	15.145660	25.428480
637	1	15.117420	9.300452	7.960544
638	1	7.028903	28.408154	9.184931
639	1	18.054988	6.082410	2.592088
640	1	24.568681	16.981453	8.593562
641	1	6.445585	0.542457	30.614453
642	1	10.481424	8.266616	13.019732
643	1	8.787197	31.611124	7.270191
644	1	8.096662	11.750623	20.561886
645	1	14.253762	11.607664	26.396968
646	1	22.485334	21.671265	23.316881
647	1	14.267305	22.576649	11.844860
648	1	2.361354	18.564774	26.541734
649	1	5.783955	16.432504	28.385406
650	1	27.064559	6.021362	0.493808
651	1	23.729692	8.654157	4.345751
652	1	4.361596	16.303609	17.307717
653	1	21.967505	29.243937	17.818459
654	1	22.353028	19.325274	27.121133
655	1	16.383967	21.338538	24.615615
656	1	4.616597	23.785909	1.413947
657	1	25.969168	17.304633	14.131896
658	1	16.625908	14.150796	14.159606
659	1	1.576222	11.781783	16.411906
660	1	26.637740	4.412431	5.569547
661	1	31.036608	14.317817	22.747566
662	1	3.300192	30.708735	6.294980
663	1	16.260432	16.671320	26.780659
664	1	18.147079	26.479451	5.972091
665	1	1.678810	20.312863	1.070927
666	1	3.868687	13.403093	23.152198
667	1	2.577972	1.438492	5.880809
668	1	9.670507	30.392844	22.523562
669	1	11.408558	22.403190	19.334090
670	1	9.854014	13.394741	14.044375
671	1	17.063695	29.757090	29.563255
672	1	29.340503	12.408732	16.012177
673	1	26.840078	0.752276	9.337104
674	1	27.772631	5.775006	20.320221
675	1	21.812300	23.676723	32.091645
676	1	14.042984	28.426983	12.641706
677	1	5.351564	30.971577	28.825221
678	1	15.032111	18.720259	30.942129
679	1	26.663509	7.570100	18.319588
680	1	14.672841	17.603867	25.020874
681	1	8.857847	8.352084	19.201461
682	1	2.952802	29.229105	4.140230
683	1	30.415246	5.076352	26.695801
684	1	3.506096	17.177580	15.044878
685	1	17.283097	29.795281	22.347219
686	1	8.795646	0.360437	12.523151
687	1	31.955007	1.006052	18.449453
688	1	21.305038	23.241732	2.845922
689	1	18.537619	12.559707	12.584936
690	1	13.243356	0.779539	14.543021
691	1	30.718078	6.432258	10.556200
692	1	24.091205	22.065976	12.044869
693	1	31.455857	13.314774	17.308419
694	1	15.301018	31.820976	26.265988
695	1	10.811906	22.810951	16.802929
696	1	5.787678	30.668649	15.560601
697	1	0.338624	17.742506	12.823777
698	1	22.842038	30.090926	23.302351
699	1	9.254241	29.766974	8.847840
700	1	6.454318	20.175464	23.835838
701	1	27.633084	30.713982	11.599391
702	1	12.368816	17.011418	4.145406
703	1	21.466520	4.171786	6.984780
704	1	29.982627	17.679529	23.602672
705	1	16.787907	10.933089	11.305612
706	1	22.783313	30.961133	14.010406
707	1	25.262708	27.070466	27.026480
708	1	3.234490	29.581250	29.233274
709	1	1.110648	19.235349	21.271718
710	1	5.880627	14.278030	26.802605
711	1	3.929684	24.383147	28.267461
712	1	20.042203	30.914560	14.376238
713	1	3.978272	2.495083	8.089058
714	1	-0.303541	21.615889	24.358375
715	1	1.616425	23.193420	9.752134
716	1	5.333019	28.181708	29.609816
717	1	23.680416	25.460712	19.780674
718	1	5.539278	6.130437	10.153024
719	1	21.721830	20.692412	3.725181
720	1	6.794260	21.103369	5.102621
721	1	18.284760	24.433419	27.823665
722	1	9.915138	15.355679	7.250799
723	1	5.009396	16.570270	5.923098
724	1	18.468943	21.352343	17.201329
725	1	2.548991	7.967724	14.569580
726	1	21.225254	24.326183	15.831728
727	1	7.980186	31.424599	0.675402
728	1	14.247748	29.455696	26.590240
729	1	31.158441	30.492171	19.079239
730	1	30.205100	9.043835	13.792238
731	1	28.809652	18.062196	21.277513
732	1	1.493627	15.652277	15.900072
733	1	24.730656	2.857680	22.545989
734	1	6.741338	27.868342	11.889788
735	1	22.270956	10.348998	17.237321
736	1	26.618246	1.136409	11.930253
737	1	26.787383	8.305573	10.718967
738	1	11.950837	22.152019	8.333854
739	1	26.007821	10.648495	10.394665
740	1	16.975524	2.726274	4.698982
741	1	11.784409	16.241606	32.065515
742	1	25.050499	5.260860	22.990970
743	1	31.400446	29.036444	26.653134
744	1	4.903447	5.729379	21.503775
745	1	7.481373	15.913502	6.608128
746	1	19.900492	17.086475	15.748577
747	1	27.905621	13.924802	19.697608
748	1	15.515958	20.852523	6.590915
749	1	8.537253	22.697503	6.045165
750	1	10.107316	11.823244	22.447395
751	1	11.887964	29.177432	31.151785
752	1	16.419896	7.523585	3.991308
753	1	27.224992	26.227478	1.579240
754	1	10.990242	4.225756	17.265573
755	1	28.891477	0.484702	8.262078
756	1	21.739417	27.892263	10.664283
757	1	0.491482	3.742928	5.382065
758	1	18.705300	12.673993	27.163503
759	1	6.117910	22.856519	31.582250
760	1	12.168150	24.801201	24.517258
761	1	2.690448	20.412236	22.889499
762	1	3.758827	18.069503	1.490122
763	1	28.246384	26.938967	14.937464
764	1	10.127157	27.349324	13.718195
765	1	30.202329	11.482491	13.829749
766	1	27.214533	13.834997	2.191951
767	1	11.676550	29.284729	20.951020
768	1	12.604584	30.835724	16.114555
769	1	15.487527	21.207476	31.300026
770	1	10.933172	4.741643	24.275347
771	1	14.721424	26.455091	31.108637
772	1	28.356167	7.687440	1.540402
773	1	31.286510	0.330848	8.843847
774	1	6.611224	22.099913	7.963301
775	1	31.489345	22.121882	5.795700
776	1	29.811368	2.832891	2.248121
777	1	25.148947	12.105663	29.296328
778	1	8.476295	23.587642	14.273105
779	1	17.690281	29.574284	14.125577
780	1	12.644584	25.020652	31.947371
781	1	21.254179	14.768646	15.639195
782	1	19.059661	-0.392477	23.566518
783	1	1.246027	3.362074	17.614047
784	1	17.732948	3.780335	2.682099
785	1	15.774134	4.480068	15.240281
786	1	10.080338	27.874556	22.439126
787	1	10.959155	26.937312	24.784535
788	1	26.366663	27.093714	9.897108
789	1	12.962595	13.101194	15.837072
790	1	17.106284	17.182977	31.341130
791	1	17.217840	8.762596	17.675367
792	1	26.512320	11.557080	1.509417
793	1	5.656219	25.078838	3.772374
794	1	23.150442	27.976056	3.915337
795	1	21.512747	28.045557	24.708173
796	1	24.438868	26.642246	2.016079
797	1	23.672080	8.623951	1.659670
798	1	14.418820	32.048264	12.279371
799	1	1.635098	18.126061	8.726614
800	1	12.928489	21.721456	17.350915
801	1	27.400907	15.703861	26.967175
802	1	23.523139	21.355317	8.881728
803	1	23.761697	31.870714	5.756940
804	1	19.970374	17.247185	4.228651
805	1	9.036735	18.345743	25.378569
806	1	31.839788	27.696072	1.221194
807	1	0.319773	5.184906	21.416603
808	1	2.858464	12.045248	13.376999
809	1	28.448542	14.365237	4.408368
810	1	15.328505	24.980606	5.501039
811	1	1.261852	8.195465	7.389493
812	1	26.404926	1.123624	23.143691
813	1	27.913681	30.857701	23.928421
814	1	13.213085	4.260956	8.102229
815	1	20.395995	16.328164	21.428958
816	1	30.030053	22.339956	12.040432
817	1	14.106117	7.453394	25.032197
818	1	8.698608	3.399035	9.272731
819	1	10.164313	13.600470	20.628713
820	1	6.476945	9.588862	19.850066
821	1	9.972882	20.291949	13.341721
822	1	16.309756	11.685708	13.641506
823	1	27.411880	16.695839	5.169761
824	1	28.872319	18.392460	6.234000
825	1	21.867830	31.343225	16.334330
826	1	10.479082	25.399537	22.352821
827	1	24.895903	15.473227	23.912179
828	1	32.018994	23.445742	26.198098
829	1	13.098078	10.537891	3.321558