ITEM: TIMESTEP
0
ITEM: NUMBER OF ATOMS
2000
ITEM: BOX BOUNDS pp pp pp
0.299875 32.1301231
0.299875 32.1301231
0.299875 32.1301231
ITEM: ATOMS id type AtomicVolume VoronoiIndex3 VoronoiIndex4 VoronoiIndex5 VoronoiIndex6 VoronoiIndex7 VoronoiIndex8 VoronoiIndex9
1 1 17.1621304 0 3 6 4 0 0 0
2 1 13.597106 0 0 12 0 0 0 0
3 1 14.1439409 0 0 12 0 0 0 0
4 1 16.9024488 0 2 8 1 0 0 0
5 1 15.0223064 1 1 8 3 1 0 0
6 1 15.7329645 1 3 5 3 2 0 0
7 1 15.9633056 0 4 5 4 1 0 0
8 1 14.5500851 0 0 12 0 0 0 0
9 1 14.8979922 1 2 7 2 2 0 0
10 1 16.0516644 0 1 10 2 0 0 0
11 1 14.891861 1 2 5 4 0 0 0
12 1 14.2585936 0 0 12 0 0 0 0
13 1 15.0878878 0 2 8 4 0 0 0
14 1 17.691639 2 2 4 5 0 1 0
15 1 15.1363154 1 0 9 3 0 0 0
16 1 14.0386667 0 0 12 0 0 0 0
17 1 15.3476458 2 0 8 2 2 0 0
18 1 14.6394491 0 1 10 2 0 0 0
19 1 14.4047794 0 0 12 0 0 0 0
20 1 14.6984444 0 3 6 3 0 0 0
21 1 13.6756697 1 0 9 3 0 0 0
22 1 15.005044 0 1 10 2 0 0 0
23 1 15.0194912 1 3 4 4 1 0 0
24 1 13.5451098 0 0 12 0 0 0 0
25 1 15.8719064 0 2 8 2 0 0 0
26 1 14.902669 0 1 10 2 0 0 0
27 1 14.738493 0 2 8 2 0 0 0
28 1 15.405201 3 2 3 3 4 0 0
29 1 16.7384377 0 1 10 2 0 0 0
30 1 15.4436779 0 2 8 2 0 0 0
31 1 15.105813 0 2 8 2 0 0 0
32 1 14.716671 0 0 12 0 0 0 0
33 1 15.0540237 1 1 8 2 1 0 0
34 1 15.5450697 1 2 7 3 2 0 0
35 1 13.1200724 0 3 6 4 0 0 0
36 1 14.3752184 0 5 2 6 0 0 0
37 1 13.4043617 0 2 8 3 0 0 0
38 1 14.9614574 0 2 8 2 0 0 0
39 1 15.7792006 1 1 8 3 1 0 0
40 1 14.7327461 0 1 10 2 0 0 0
41 1 15.6596661 0 2 8 4 0 0 0
42 1 16.5377503 1 0 9 3 0 0 0
43 1 13.5437956 0 0 12 0 0 0 0
44 1 14.919099 1 3 4 5 1 0 0
45 1 12.9401846 0 0 12 0 0 0 0
46 1 13.674881 0 2 8 2 0 0 0
47 1 13.2030439 0 3 6 2 0 0 0
48 1 16.4466782 0 2 8 4 0 0 0
49 1 14.0388241 0 1 10 2 0 0 0
50 1 13.5166254 0 0 12 0 0 0 0
51 1 14.8748608 0 4 4 4 0 0 0
52 1 16.3156338 0 0 12 0 0 0 0
53 1 14.2937451 0 2 8 2 0 0 0
54 1 14.186616 1 2 6 3 1 0 0
55 1 15.3630839 0 0 12 0 0 0 0
56 1 14.7255926 1 1 7 5 0 0 0
57 1 16.5166035 2 2 3 5 1 0 0
58 1 14.1306439 0 2 8 2 0 0 0
59 1 17.2531071 1 2 5 5 0 0 0
60 1 13.8765498 1 0 9 3 0 0 0
61 1 15.7579928 0 3 6 4 0 0 0
62 1 14.1968327 0 1 10 2 0 0 0
63 1 14.1587362 0 1 10 2 0 0 0
64 1 15.0665712 0 3 6 3 0 0 0
65 1 15.6465531 1 1 7 5 0 0 0
66 1 14.5564156 0 0 12 0 0 0 0
67 1 15.2841492 0 0 12 0 0 0 0
68 1 14.2734413 1 3 3 5 0 0 0
69 1 13.0272703 0 2 8 1 0 0 0
70 1 14.0960474 0 0 12 0 0 0 0
71 1 13.6193133 0 2 8 1 0 0 0
72 1 13.0040035 0 0 12 0 0 0 0
73 1 14.3503056 0 1 10 2 0 0 0
74 1 14.376647 0 2 8 1 0 0 0
75 1 15.9400558 0 1 10 2 0 0 0
76 1 14.4171295 0 4 4 6 0 0 0
77 1 15.3376598 1 1 8 3 1 0 0
78 1 15.589715 0 1 10 2 0 0 0
79 1 15.0678816 1 2 6 2 1 0 0
80 1 14.8776752 0 2 8 2 0 0 0
81 1 14.8913222 0 0 12 0 0 0 0
82 1 14.4605837 0 1 10 2 0 0 0
83 1 16.4090424 0 3 6 5 0 0 0
84 1 14.3481779 0 2 8 2 0 0 0
85 1 13.9392596 0 2 8 2 0 0 0
86 1 13.986601 1 0 9 3 0 0 0
87 1 14.7079954 0 0 12 0 0 0 0
88 1 15.9735938 0 3 6 4 0 0 0
89 1 14.091342 0 2 8 2 0 0 0
90 1 16.9755516 1 0 9 3 0 0 0
91 1 15.2905827 0 1 10 2 0 0 0
92 1 12.9084168 1 2 6 3 1 0 0
93 1 15.7462216 0 2 8 2 0 0 0
94 1 12.9218826 0 0 12 0 0 0 0
95 1 14.9709444 0 2 8 4 0 0 0
96 1 13.7155237 0 0 12 0 0 0 0
97 1 16.0018501 0 2 8 3 0 0 0
98 1 15.616931 0 1 10 2 0 0 0
99 1 14.0249634 0 2 8 2 0 0 0
100 1 16.4243183 0 2 8 3 0 0 0
101 1 14.022191 0 2 8 2 0 0 0
102 1 14.4773884 0 0 12 0 0 0 0
103 1 16.3139248 0 3 6 4 0 0 0
104 1 12.8171911 0 2 8 2 0 0 0
105 1 13.5354252 0 0 12 0 0 0 0
106 1 13.5015145 0 4 4 6 0 0 0
107 1 13.9298296 0 0 12 0 0 0 0
108 1 14.7183409 1 2 7 2 2 0 0
109 1 13.5440636 0 0 12 0 0 0 0
110 1 15.3415642 0 2 8 4 0 0 0
111 1 15.3820629 0 3 6 2 0 0 0
112 1 15.4789448 0 3 6 5 0 0 0
113 1 15.4849873 0 1 10 2 0 0 0
114 1 16.8485356 0 4 4 5 0 0 0
115 1 14.5810881 0 1 10 3 0 0 0
116 1 14.9796372 0 2 8 3 0 0 0
117 1 15.3085756 0 4 4 5 0 0 0
118 1 14.1140843 0 2 8 4 0 0 0
119 1 13.7707472 0 0 12 0 0 0 0
120 1 13.4948712 0 1 10 2 0 0 0
121 1 14.8620368 0 3 6 2 0 0 0
122 1 14.5938912 0 2 8 2 0 0 0
123 1 15.5971174 0 4 5 4 1 0 0
124 1 14.9766502 0 2 8 2 0 0 0
125 1 14.3131161 0 1 10 2 0 0 0
126 1 16.1767387 1 2 6 3 1 0 0
127 1 15.575862 1 2 6 3 1 0 0
128 1 14.5311823 0 2 8 2 0 0 0
129 1 14.9665318 0 1 10 2 0 0 0
130 1 15.3160963 1 0 9 3 0 0 0
131 1 14.5161896 0 4 4 6 0 0 0
132 1 16.2643643 0 2 8 2 0 0 0
133 1 13.2466974 0 0 12 0 0 0 0
134 1 16.1383724 0 3 7 4 1 0 0
135 1 18.4446907 3 2 3 3 2 1 0
136 1 15.4584027 0 1 10 2 0 0 0
137 1 16.7077732 0 4 4 7 0 0 0
138 1 14.3083162 0 0 12 0 0 0 0
139 1 14.6763392 0 3 6 3 0 0 0
140 1 15.0515842 1 2 6 2 1 0 0
141 1 16.6369 0 2 8 7 0 0 0
142 1 14.1975336 0 0 12 0 0 0 0
143 1 14.7574415 0 0 12 0 0 0 0
144 1 13.5518418 0 0 12 0 0 0 0
145 1 14.2687884 1 2 6 2 1 0 0
146 1 15.2859955 0 0 12 2 0 0 0
147 1 13.4686022 0 4 5 4 1 0 0
148 1 14.7200823 0 3 6 3 0 0 0
149 1 14.8497802 0 3 6 4 0 0 0
150 1 13.9432096 0 0 12 0 0 0 0
151 1 15.5766592 0 1 10 2 0 0 0
152 1 14.6260357 0 1 10 2 0 0 0
153 1 15.0149412 0 4 4 6 0 0 0
154 1 13.8913852 0 1 10 2 0 0 0
155 1 15.8422128 0 1 10 2 0 0 0
156 1 15.8767128 0 1 10 2 0 0 0
157 1 14.1867132 0 0 12 0 0 0 0
158 1 15.6210842 0 2 8 2 0 0 0
159 1 13.1756897 0 2 8 2 0 0 0
160 1 14.4092312 0 1 10 2 0 0 0
161 1 14.9175024 0 3 6 3 0 0 0
162 1 13.8062067 0 1 10 2 0 0 0
163 1 16.3084679 0 1 10 3 0 0 0
164 1 13.7187157 0 0 12 0 0 0 0
165 1 14.4288035 0 0 12 2 0 0 0
166 1 13.328742 0 0 12 0 0 0 0
167 1 13.8440456 0 0 12 0 0 0 0
168 1 15.1730785 1 0 9 3 0 0 0
169 1 15.1388416 1 3 4 5 1 0 0
170 1 14.9465114 0 2 8 2 0 0 0
171 1 16.3454456 0 4 4 5 0 0 0
172 1 15.3938284 2 0 8 2 2 0 0
173 1 16.0254307 3 3 2 3 2 0 1
174 1 13.2380457 0 1 10 2 0 0 0
175 1 15.2682457 0 2 8 2 0 0 0
176 1 16.5213871 0 3 6 5 0 0 0
177 1 15.490819 0 2 8 2 0 0 0
178 1 14.6173773 0 0 12 0 0 0 0
179 1 16.4213715 0 1 10 2 0 0 0
180 1 14.6642046 0 2 8 1 0 0 0
181 1 14.3904095 1 1 8 3 1 0 0
182 1 15.1618958 0 1 10 2 0 0 0
183 1 15.4052038 0 3 6 3 0 0 0
184 1 13.7338152 1 0 9 3 0 0 0
185 1 15.3627844 0 0 12 0 0 0 0
186 1 13.702034 1 0 9 3 0 0 0
187 1 15.1291714 0 1 10 2 0 0 0
188 1 15.3288841 0 3 6 4 0 0 0
189 1 13.2722378 0 0 12 0 0 0 0
190 1 13.5284815 0 0 12 0 0 0 0
191 1 16.7512608 1 2 6 3 1 0 0
192 1 15.938573 1 1 8 3 1 0 0
193 1 16.0304661 2 1 6 1 2 0 0
194 1 12.700819 2 6 0 1 4 1 0
195 1 15.3243408 0 2 8 2 0 0 0
196 1 13.4527254 0 1 10 2 0 0 0
197 1 14.9411898 0 0 12 0 0 0 0
198 1 14.8275061 0 0 12 0 0 0 0
199 1 16.4549122 0 1 10 2 0 0 0
200 1 13.8320446 0 1 10 2 0 0 0
201 1 14.0516968 0 0 12 0 0 0 0
202 1 13.7180548 0 1 10 2 0 0 0
203 1 15.2954931 0 1 10 2 0 0 0
204 1 15.1544361 0 1 10 2 0 0 0
205 1 17.7660294 0 2 8 4 0 0 0
206 1 14.7366896 0 3 7 2 1 0 0
207 1 17.675438 0 4 4 7 0 0 0
208 1 15.491354 0 0 12 0 0 0 0
209 1 15.0093994 0 0 12 0 0 0 0
210 1 14.7788039 1 0 9 3 0 0 0
211 1 15.0535297 0 3 6 4 0 0 0
212 1 15.0965481 1 2 6 2 1 0 0
213 1 13.9928914 0 0 12 0 0 0 0
214 1 14.8129874 0 0 12 0 0 0 0
215 1 13.8483172 0 0 12 0 0 0 0
216 1 16.1267185 0 4 4 4 0 0 0
217 1 15.5646086 0 1 10 2 0 0 0
218 1 13.998765 0 2 8 1 0 0 0
219 1 14.5224056 1 2 6 3 1 0 0
220 1 14.2615862 0 4 4 5 0 0 0
221 1 15.0968685 0 2 8 2 0 0 0
222 1 14.3344965 0 0 12 0 0 0 0
223 1 13.9066602 0 0 12 0 0 0 0
224 1 16.2530003 0 3 6 4 0 0 0
225 1 16.7107067 2 2 5 4 1 1 0
226 1 14.066659 0 0 12 0 0 0 0
227 1 15.2851982 0 0 12 0 0 0 0
228 1 14.3571234 0 2 8 2 0 0 0
229 1 15.9254274 0 3 6 4 0 0 0
230 1 14.3746061 0 3 6 3 0 0 0
231 1 13.9243814 0 0 12 0 0 0 0
232 1 12.9694138 0 1 10 2 0 0 0
233 1 15.8946848 0 3 6 5 0 0 0
234 1 14.5153952 0 2 8 2 0 0 0
235 1 15.6469498 0 0 12 0 0 0 0
236 1 14.4489203 3 1 5 1 2 1 0
237 1 14.6469307 1 2 6 3 1 0 0
238 1 14.4478274 0 1 10 2 0 0 0
239 1 15.307744 1 4 2 5 1 0 0
240 1 17.4127808 0 3 6 5 0 0 0
241 1 13.8073044 0 0 12 0 0 0 0
242 1 16.8203907 0 1 10 3 0 0 0
243 1 15.8182917 0 3 6 4 0 0 0
244 1 15.3688812 0 0 12 0 0 0 0
245 1 16.471262 0 2 8 2 0 0 0
246 1 14.5888491 0 0 12 0 0 0 0
247 1 13.7721052 0 0 12 0 0 0 0
248 1 15.4020796 1 2 5 4 0 0 0
249 1 14.0891943 0 2 8 2 0 0 0
250 1 13.7435799 0 1 10 2 0 0 0
251 1 15.7154179 1 3 4 4 1 0 0
252 1 15.1151342 0 0 12 0 0 0 0
253 1 14.8149538 0 0 12 0 0 0 0
254 1 15.28543 0 1 10 2 0 0 0
255 1 14.9057856 0 2 8 1 0 0 0
256 1 14.3901911 0 3 6 4 0 0 0
257 1 17.0316353 3 2 2 3 3 0 0
258 1 15.9427854 1 0 9 3 0 0 0
259 1 15.3333407 1 1 9 2 2 0 0
260 1 16.2267418 0 3 6 4 0 0 0
261 1 13.0336218 0 2 8 1 0 0 0
262 1 16.1190758 2 1 6 4 2 0 0
263 1 14.6091614 0 1 10 2 0 0 0
264 1 16.6572418 0 4 5 2 1 0 0
265 1 14.0362415 0 0 12 0 0 0 0
266 1 14.6138401 0 2 8 1 0 0 0
267 1 16.5293617 0 2 9 2 1 0 0
268 1 14.7315893 0 2 8 3 0 0 0
269 1 16.6304932 0 3 7 4 1 0 0
270 1 15.9815426 1 3 4 4 1 0 0
271 1 15.9441366 1 2 7 2 2 0 0
272 1 14.8192482 0 1 10 2 0 0 0
273 1 15.9171392 0 4 4 4 0 0 0
274 1 14.7800713 0 0 12 0 0 0 0
275 1 13.2159357 0 2 8 1 0 0 0
276 1 17.5192814 0 4 4 6 0 0 0
277 1 14.8424178 0 2 8 2 0 0 0
278 1 14.8657008 0 3 6 4 0 0 0
279 1 14.669899 0 0 12 0 0 0 0
280 1 16.1655369 1 2 6 3 1 0 0
281 1 14.7647028 0 3 6 2 0 0 0
282 1 13.7700053 0 1 10 2 0 0 0
283 1 16.0296326 0 2 8 4 0 0 0
284 1 15.893901 0 0 12 0 0 0 0
285 1 14.6873999 2 2 4 4 0 1 0
286 1 16.1224194 0 2 8 3 0 0 0
287 1 13.2618876 1 2 7 2 2 0 0
288 1 12.9972076 0 0 12 0 0 0 0
289 1 16.2906628 1 3 5 2 2 0 0
290 1 16.8456422 1 3 4 3 1 0 0
291 1 17.2159824 0 1 10 2 0 0 0
292 1 14.7553578 0 2 8 4 0 0 0
293 1 14.0482082 0 2 8 1 0 0 0
294 1 12.4331284 0 0 12 0 0 0 0
295 1 15.716712 0 4 4 4 0 0 0
296 1 17.1415939 1 2 7 2 2 0 0
297 1 18.3258419 0 2 8 4 0 0 0
298 1 15.1233578 1 1 8 1 1 0 0
299 1 16.6035271 0 4 4 3 0 0 0
300 1 15.1817484 0 3 6 3 0 0 0
301 1 16.3609429 0 3 6 4 0 0 0
302 1 14.916464 0 2 8 2 0 0 0
303 1 13.5921335 1 0 9 3 0 0 0
304 1 16.4841423 1 2 7 2 2 0 0
305 1 14.4882622 0 3 6 4 0 0 0
306 1 15.3370476 0 0 12 0 0 0 0
307 1 14.741231 0 3 6 4 0 0 0
308 1 13.9249334 0 0 12 0 0 0 0
309 1 13.7257271 0 0 12 0 0 0 0
310 1 15.3700895 1 2 6 3 1 0 0
311 1 16.2269917 1 0 9 3 0 0 0
312 1 15.0972195 1 3 4 5 1 0 0
313 1 15.6190834 1 3 4 5 1 0 0
314 1 14.7587834 0 0 12 0 0 0 0
315 1 14.3186255 0 0 12 0 0 0 0
316 1 15.5977078 1 2 7 2 2 0 0
317 1 14.6730623 0 1 10 2 0 0 0
318 1 16.874218 0 4 4 5 0 0 0
319 1 15.1586495 0 4 4 7 0 0 0
320 1 15.2080364 1 2 7 3 0 1 0
321 1 14.2402887 0 1 10 2 0 0 0
322 1 15.6968098 0 2 8 2 0 0 0
323 1 16.3621864 0 1 10 2 0 0 0
324 1 15.9886914 0 1 10 2 0 0 0
325 1 17.0969791 2 2 4 2 2 0 0
326 1 14.4669228 0 0 12 0 0 0 0
327 1 16.2549172 0 3 6 5 0 0 0
328 1 14.9203348 0 1 10 3 0 0 0
329 1 13.9643908 0 0 12 0 0 0 0
330 1 15.8115731 1 2 6 3 1 0 0
331 1 14.4240113 1 0 9 3 0 0 0
332 1 16.5106869 2 2 4 3 2 0 0
333 1 15.3662291 1 3 4 5 1 0 0
334 1 14.7351504 3 2 3 4 2 1 0
335 1 15.6511669 0 3 6 4 0 0 0
336 1 13.821084 0 4 4 4 0 0 0
337 1 14.8302393 0 3 6 3 0 0 0
338 1 17.0875416 1 3 4 6 1 0 0
339 1 13.4898968 0 0 12 0 0 0 0
340 1 15.7550259 1 4 3 4 2 0 0
341 1 16.2078781 0 2 8 1 0 0 0
342 1 14.2667408 1 3 4 3 1 0 0
343 1 15.1382618 0 2 8 2 0 0 0
344 1 15.4798994 0 3 6 4 0 0 0
345 1 16.8426762 1 2 6 3 1 0 0
346 1 14.2342606 1 0 9 3 0 0 0
347 1 15.2570772 1 2 5 4 0 0 0
348 1 14.3924933 0 0 12 0 0 0 0
349 1 15.8211746 0 2 8 2 0 0 0
350 1 14.4600973 0 2 8 2 0 0 0
351 1 17.0855618 0 4 6 3 2 0 0
352 1 14.7372608 0 2 8 1 0 0 0
353 1 15.405798 1 2 5 5 0 0 0
354 1 13.3377667 0 1 10 2 0 0 0
355 1 14.6956253 0 2 8 1 0 0 0
356 1 14.1697083 0 1 10 2 0 0 0
357 1 13.4822769 0 0 12 0 0 0 0
358 1 15.6681652 0 1 10 2 0 0 0
359 1 14.7728062 0 1 10 2 0 0 0
360 1 14.1142216 0 0 12 0 0 0 0
361 1 14.9704208 0 0 12 0 0 0 0
362 1 16.1172657 1 2 5 4 0 0 0
363 1 14.8527536 0 1 10 2 0 0 0
364 1 14.6117583 0 2 8 2 0 0 0
365 1 14.8413106 0 2 8 1 0 0 0
366 1 14.0290918 0 0 12 0 0 0 0
367 1 12.750247 0 0 12 0 0 0 0
368 1 15.8789072 2 2 5 2 3 0 0
369 1 15.9231758 0 1 10 3 0 0 0
370 1 14.3973274 0 1 10 2 0 0 0
371 1 14.8198061 0 3 6 4 0 0 0
372 1 13.8169651 0 1 10 2 0 0 0
373 1 15.7243185 1 2 6 3 1 0 0
374 1 13.9489536 0 1 10 2 0 0 0
375 1 15.6328478 1 2 6 4 1 0 0
376 1 16.8282738 0 1 10 2 0 0 0
377 1 16.0109692 0 3 6 5 0 0 0
378 1 15.132782 0 3 6 4 0 0 0
379 1 15.391963 0 3 6 3 0 0 0
380 1 15.0850229 0 2 8 2 0 0 0
381 1 14.7728892 0 0 12 0 0 0 0
382 1 12.9943076 0 0 12 0 0 0 0
383 1 13.9394342 0 0 12 0 0 0 0
384 1 16.1260986 1 1 8 1 1 0 0
385 1 18.1509628 1 4 3 5 2 0 0
386 1 15.4026642 0 1 10 3 0 0 0
387 1 12.7031956 0 0 12 0 0 0 0
388 1 14.1200094 1 0 9 3 0 0 0
389 1 13.4372578 0 0 12 0 0 0 0
390 1 13.4762535 1 0 9 3 0 0 0
391 1 14.7513752 0 2 8 2 0 0 0
392 1 14.9619188 0 2 8 3 0 0 0
393 1 15.3857937 0 3 6 4 0 0 0
394 1 15.8945436 1 3 4 3 1 0 0
395 1 13.9745284 2 2 4 2 2 0 0
396 1 14.4924774 0 3 6 4 0 0 0
397 1 15.0179014 0 2 8 1 0 0 0
398 1 15.5620041 0 1 10 2 0 0 0
399 1 16.5588589 0 2 8 2 0 0 0
400 1 14.1707449 0 0 12 0 0 0 0
401 1 13.7951784 0 1 10 2 0 0 0
402 1 15.0340929 0 1 10 2 0 0 0
403 1 14.2567034 0 1 10 2 0 0 0
404 1 15.4779473 1 2 5 4 0 0 0
405 1 15.7063256 0 2 8 2 0 0 0
406 1 15.405138 0 1 10 2 0 0 0
407 1 16.130537 1 0 9 3 0 0 0
408 1 14.4767399 0 2 8 2 0 0 0
409 1 14.348074 0 0 12 0 0 0 0
410 1 15.9678136 0 2 8 3 0 0 0
411 1 15.422822 1 0 9 3 0 0 0
412 1 14.9784022 1 2 5 4 0 0 0
413 1 14.999238 0 3 6 3 0 0 0
414 1 14.4188671 1 3 4 4 1 0 0
415 1 14.4590206 0 1 10 2 0 0 0
416 1 16.002512 0 2 8 2 0 0 0
417 1 14.9345188 0 2 8 2 0 0 0
418 1 14.3887444 1 0 9 3 0 0 0
419 1 14.1702547 0 1 10 2 0 0 0
420 1 13.0446644 0 1 10 2 0 0 0
421 1 13.4769392 0 0 12 0 0 0 0
422 1 14.969699 0 3 7 1 1 0 0
423 1 17.5187836 0 5 3 5 1 0 0
424 1 14.3292313 0 0 12 0 0 0 0
425 1 12.5734835 0 0 12 0 0 0 0
426 1 15.1029272 0 2 8 2 0 0 0
427 1 15.191391 0 2 8 1 0 0 0
428 1 15.1397352 1 2 5 4 0 0 0
429 1 15.1468382 0 3 6 3 0 0 0
430 1 13.8407488 0 3 6 3 0 0 0
431 1 15.6515064 1 0 9 3 0 0 0
432 1 13.525342 0 0 12 0 0 0 0
433 1 13.3632345 0 0 12 0 0 0 0
434 1 14.1139011 0 2 8 1 0 0 0
435 1 13.8898392 0 0 12 0 0 0 0
436 1 17.3062954 0 5 3 4 1 0 0
437 1 14.629098 0 2 8 5 0 0 0
438 1 14.0547571 0 0 12 0 0 0 0
439 1 13.7927408 0 2 8 1 0 0 0
440 1 14.2451105 0 1 10 2 0 0 0
441 1 17.3106232 0 2 8 2 0 0 0
442 1 16.4050827 0 3 6 5 0 0 0
443 1 15.905941 0 2 8 4 0 0 0
444 1 16.3575134 0 3 6 4 0 0 0
445 1 13.5793448 0 0 12 0 0 0 0
446 1 16.1614246 0 3 6 4 0 0 0
447 1 14.3204422 0 3 6 4 0 0 0
448 1 15.2200422 2 2 3 5 1 0 0
449 1 15.3930321 1 2 5 4 0 0 0
450 1 14.5666704 0 1 10 2 0 0 0
451 1 15.2868872 0 4 4 6 0 0 0
452 1 15.4222212 0 1 10 3 0 0 0
453 1 14.6925831 1 1 8 3 1 0 0
454 1 13.872365 2 0 8 2 2 0 0
455 1 13.9521276 0 0 12 0 0 0 0
456 1 15.7162247 0 3 6 4 0 0 0
457 1 15.6980849 0 1 10 2 0 0 0
458 1 17.6187172 1 3 6 5 1 1 0
459 1 15.5829993 2 2 4 4 0 1 0
460 1 13.5597153 0 0 12 0 0 0 0
461 1 15.2238808 2 2 4 2 2 0 0
462 1 15.3933945 0 3 6 4 0 0 0
463 1 14.3250475 0 1 10 2 0 0 0
464 1 16.3092365 0 3 6 4 0 0 0
465 1 16.3052273 0 0 12 0 0 0 0
466 1 16.1401215 1 2 7 4 0 1 0
467 1 13.7095795 0 0 12 0 0 0 0
468 1 16.7141857 0 1 10 2 0 0 0
469 1 14.1727848 0 1 10 2 0 0 0
470 1 14.936574 0 2 8 2 0 0 0
471 1 15.1819611 0 2 8 4 0 0 0
472 1 15.4892254 1 2 5 3 0 0 0
473 1 16.5448036 0 3 6 4 0 0 0
474 1 14.6484652 1 4 2 5 1 0 0
475 1 16.8851052 1 1 9 0 2 0 0
476 1 14.9346734 0 2 8 4 0 0 0
477 1 16.2287769 2 4 1 4 3 0 0
478 1 14.9336596 0 0 12 0 0 0 0
479 1 14.8179674 0 1 10 2 0 0 0
480 1 15.1792116 0 5 2 5 0 0 0
481 1 17.7158451 0 3 6 5 0 0 0
482 1 17.0279045 2 2 4 4 2 0 0
483 1 13.1248713 0 0 12 0 0 0 0
484 1 14.1586418 0 2 8 1 0 0 0
485 1 15.4037428 0 0 12 0 0 0 0
486 1 14.5611563 2 3 3 4 1 1 0
487 1 13.9923554 0 0 12 0 0 0 0
488 1 13.2029753 0 0 12 0 0 0 0
489 1 15.6111279 0 4 4 5 0 0 0
490 1 13.0390425 0 0 12 0 0 0 0
491 1 15.6130467 0 1 10 2 0 0 0
492 1 14.4198132 0 2 8 2 0 0 0
493 1 16.2528038 0 3 6 4 0 0 0
494 1 14.3609762 1 3 3 6 0 0 0
495 1 12.5425854 0 0 12 0 0 0 0
496 1 14.9544316 0 3 6 4 0 0 0
497 1 14.8889314 1 2 6 2 1 0 0
498 1 14.2043181 0 2 8 2 0 0 0
499 1 14.4034042 0 5 2 6 0 0 0
500 1 14.6845141 0 2 8 1 0 0 0
501 1 14.5957337 0 0 12 0 0 0 0
502 1 15.8364744 1 3 5 2 2 0 0
503 1 16.3835888 0 3 6 4 0 0 0
504 1 15.2989378 1 2 6 3 1 0 0
505 1 14.1404305 0 3 6 5 0 0 0
506 1 14.4217711 1 2 5 4 0 0 0
507 1 14.6602135 0 2 8 2 0 0 0
508 1 15.7278691 0 0 12 0 0 0 0
509 1 13.7835617 3 2 2 4 3 0 0
510 1 15.6378184 4 1 4 2 0 3 0
511 1 15.2590981 0 3 6 3 0 0 0
512 1 16.4873276 0 2 8 2 0 0 0
513 1 16.3610516 0 3 6 4 0 0 0
514 1 13.9713144 1 2 6 3 1 0 0
515 1 14.0084305 0 3 6 5 0 0 0
516 1 15.0799608 0 1 10 2 0 0 0
517 1 14.7826233 0 1 10 2 0 0 0
518 1 14.3746891 0 0 12 0 0 0 0
519 1 15.0846396 0 2 8 3 0 0 0
520 1 15.4641876 0 2 8 2 0 0 0
521 1 16.4818249 0 1 10 3 0 0 0
522 1 16.658226 0 3 6 4 0 0 0
523 1 14.9516164 0 1 10 2 0 0 0
524 1 14.3171406 0 2 8 1 0 0 0
525 1 16.1640053 0 2 8 2 0 0 0
526 1 14.6088629 0 3 6 4 0 0 0
527 1 15.34762 0 1 10 2 0 0 0
528 1 15.5186253 0 1 10 2 0 0 0
529 1 13.478097 0 0 12 0 0 0 0
530 1 16.990654 1 2 7 3 2 0 0
531 1 16.7450772 1 2 5 5 0 0 0
532 1 12.3893528 0 0 12 0 0 0 0
533 1 15.0829105 1 1 7 5 0 0 0
534 1 14.1759462 0 0 12 0 0 0 0
535 1 15.2014751 0 2 8 4 0 0 0
536 1 16.7599335 0 0 12 0 0 0 0
537 1 13.9396916 0 1 10 2 0 0 0
538 1 15.6874581 1 2 5 4 0 0 0
539 1 15.4157934 0 0 12 0 0 0 0
540 1 15.4337158 1 2 5 4 0 0 0
541 1 16.3702965 1 3 3 7 0 0 0
542 1 15.2877398 0 1 10 2 0 0 0
543 1 16.194191 1 3 4 5 1 0 0
544 1 13.7705775 0 2 8 4 0 0 0
545 1 14.8917304 0 1 10 2 0 0 0
546 1 12.5723229 0 2 8 1 0 0 0
547 1 14.4880753 0 1 10 2 0 0 0
548 1 14.700409 0 1 10 2 0 0 0
549 1 13.7268811 0 2 8 4 0 0 0
550 1 16.5902577 0 4 4 5 0 0 0
551 1 14.1730204 0 0 12 0 0 0 0
552 1 14.3626366 0 0 12 0 0 0 0
553 1 14.5685911 1 2 5 5 0 0 0
554 1 13.7270851 0 0 12 0 0 0 0
555 1 14.7306233 0 1 10 2 0 0 0
556 1 16.1108131 0 3 6 5 0 0 0
557 1 16.9641076 2 2 5 3 1 1 0
558 1 15.931346 0 3 6 4 0 0 0
559 1 15.9172678 1 1 8 1 1 0 0
560 1 16.2450581 3 2 3 4 1 0 1
561 1 17.0785942 2 4 2 3 4 0 0
562 1 15.4065266 0 2 8 2 0 0 0
563 1 13.9368192 0 1 10 2 0 0 0
564 1 16.8897744 1 2 6 3 1 0 0
565 1 13.918746 1 2 6 3 1 0 0
566 1 14.4054995 0 1 10 2 0 0 0
567 1 13.4141379 0 3 6 4 0 0 0
568 1 15.8531028 0 2 8 4 0 0 0
569 1 14.0766163 0 0 12 0 0 0 0
570 1 14.2594681 0 0 12 0 0 0 0
571 1 16.1676922 1 2 6 3 1 0 0
572 1 14.7884846 0 0 12 0 0 0 0
573 1 14.1045418 0 1 10 2 0 0 0
574 1 15.2143107 1 2 5 3 0 0 0
575 1 16.0388298 0 4 4 3 0 0 0
576 1 14.2577887 1 2 5 4 0 0 0
577 1 15.4896145 0 3 6 4 0 0 0
578 1 14.5510769 0 3 6 4 0 0 0
579 1 14.3461676 0 3 6 4 0 0 0
580 1 16.418335 0 3 6 4 0 0 0
581 1 13.8980274 0 0 12 0 0 0 0
582 1 14.9908448 1 2 5 5 0 0 0
583 1 14.3370104 0 3 6 1 0 0 0
584 1 14.7680378 0 1 10 2 0 0 0
585 1 15.3024483 1 3 4 5 1 0 0
586 1 13.9192848 0 0 12 0 0 0 0
587 1 14.4085236 0 0 12 0 0 0 0
588 1 14.5589466 0 0 12 0 0 0 0
589 1 16.3486652 0 1 10 2 0 0 0
590 1 14.9948874 0 3 6 4 0 0 0
591 1 15.073802 0 3 6 2 0 0 0
592 1 13.8379784 0 1 10 3 0 0 0
593 1 14.8370581 0 2 8 2 0 0 0
594 1 14.9924232 0 3 6 4 0 0 0
595 1 15.0011396 0 3 6 3 0 0 0
596 1 13.7991886 0 1 10 2 0 0 0
597 1 14.6295481 0 2 8 1 0 0 0
598 1 18.0871315 0 1 10 2 0 0 0
599 1 15.3710776 0 3 7 2 1 0 0
600 1 12.8380242 0 2 8 2 0 0 0
601 1 16.3283215 1 1 8 1 1 0 0
602 1 14.2884388 1 3 4 5 1 0 0
603 1 15.1060352 0 2 8 1 0 0 0
604 1 15.8916732 0 2 8 2 0 0 0
605 1 15.2305069 0 1 10 3 0 0 0
606 1 16.2324734 0 1 10 2 0 0 0
607 1 13.9656286 1 2 6 3 1 0 0
608 1 14.8782482 0 3 6 4 0 0 0
609 1 14.6962013 0 3 6 4 0 0 0
610 1 15.111455 0 2 8 2 0 0 0
611 1 14.4847193 1 1 8 3 1 0 0
612 1 15.100462 0 3 6 4 0 0 0
613 1 15.6121378 1 2 6 3 1 0 0
614 1 13.3584652 0 0 12 0 0 0 0
615 1 13.8672086 0 4 4 4 0 0 0
616 1 14.7493983 1 1 8 3 1 0 0
617 1 15.5625372 0 3 6 3 0 0 0
618 1 15.4558239 0 0 12 0 0 0 0
619 1 16.1869087 1 2 5 4 0 0 0
620 1 17.0252914 1 4 3 5 2 0 0
621 1 15.5659504 2 0 8 2 2 0 0
622 1 15.1876707 0 2 8 2 0 0 0
623 1 15.7252589 1 2 6 3 1 0 0
624 1 16.2882958 1 2 6 3 1 0 0
625 1 17.4886208 0 2 8 2 0 0 0
626 1 14.5087137 0 2 8 1 0 0 0
627 1 14.932809 1 3 4 5 1 0 0
628 1 13.9660578 0 2 8 2 0 0 0
629 1 12.8761416 0 2 8 0 0 0 0
630 1 15.6342278 0 2 8 2 0 0 0
631 1 16.4118462 1 2 7 4 2 0 0
632 1 15.7379246 0 1 10 2 0 0 0
633 1 13.7341242 0 2 8 1 0 0 0
634 1 15.2124291 0 3 6 4 0 0 0
635 1 16.1942978 0 4 4 6 0 0 0
636 1 14.5168915 0 2 8 3 0 0 0
637 1 14.9442368 0 3 6 3 0 0 0
638 1 14.0503206 0 0 12 0 0 0 0
639 1 14.0759192 0 1 10 2 0 0 0
640 1 15.1232853 1 3 3 5 0 0 0
641 1 15.1856136 0 2 8 2 0 0 0
642 1 14.139493 1 1 9 0 2 0 0
643 1 13.2977657 0 0 12 0 0 0 0
644 1 16.9130994 0 3 6 5 0 0 0
645 1 17.9903278 1 4 3 4 2 0 0
646 1 14.7248764 2 3 3 3 3 0 0
647 1 16.7265702 0 1 10 2 0 0 0
648 1 14.971344 0 2 8 2 0 0 0
649 1 13.8935022 0 0 12 0 0 0 0
650 1 15.1262159 0 2 8 2 0 0 0
651 1 12.9848462 0 1 10 2 0 0 0
652 1 15.5203495 0 4 4 4 0 0 0
653 1 16.1380043 0 3 6 5 0 0 0
654 1 14.2328148 0 2 8 3 0 0 0
655 1 14.9855804 0 2 8 2 0 0 0
656 1 14.841857 0 1 10 3 0 0 0
657 1 14.0140934 0 0 12 0 0 0 0
658 1 14.3379402 0 1 10 2 0 0 0
659 1 16.0126591 0 2 8 2 0 0 0
660 1 17.3901425 0 3 6 5 0 0 0
661 1 15.2438641 0 2 8 1 0 0 0
662 1 14.5883971 1 2 7 3 2 0 0
663 1 15.6182871 0 2 8 2 0 0 0
664 1 13.7839432 0 2 8 4 0 0 0
665 1 17.7343807 1 3 5 5 2 0 0
666 1 14.6354637 0 2 8 2 0 0 0
667 1 14.9359694 1 2 6 5 1 0 0
668 1 15.6918659 0 0 12 0 0 0 0
669 1 15.0183468 0 2 8 2 0 0 0
670 1 14.5791092 0 3 6 4 0 0 0
671 1 14.9440576 0 0 12 0 0 0 0
672 1 16.2381649 2 2 3 5 1 0 0
673 1 14.0282526 0 3 6 5 0 0 0
674 1 16.1505928 0 2 8 4 0 0 0
675 1 14.3242588 0 1 10 2 0 0 0
676 1 15.687728 1 2 5 4 0 0 0
677 1 14.6140261 0 0 12 0 0 0 0
678 1 14.5417986 1 2 5 4 0 0 0
679 1 15.4535856 0 2 8 4 0 0 0
680 1 15.5284977 0 3 6 4 0 0 0
681 1 14.6220703 0 1 10 2 0 0 0
682 1 13.817708 1 1 8 3 1 0 0
683 1 15.8319006 0 3 6 3 0 0 0
684 1 13.9675312 0 2 8 2 0 0 0
685 1 17.4552937 0 3 6 4 0 0 0
686 1 15.0977783 0 1 10 2 0 0 0
687 1 14.7204943 0 0 12 0 0 0 0
688 1 14.6928234 0 1 10 2 0 0 0
689 1 14.0554752 0 1 10 2 0 0 0
690 1 15.0327902 0 2 8 2 0 0 0
691 1 13.7677098 0 0 12 0 0 0 0
692 1 15.376401 0 4 4 4 0 0 0
693 1 17.9965954 1 0 9 3 0 0 0
694 1 15.4388323 0 1 10 2 0 0 0
695 1 14.8267184 0 4 4 6 0 0 0
696 1 14.8159638 1 0 10 3 1 0 0
697 1 13.8641702 0 0 12 0 0 0 0
698 1 14.1776114 0 0 12 0 0 0 0
699 1 13.4588099 0 0 12 0 0 0 0
700 1 13.7582407 2 2 4 5 0 1 0
701 1 13.3389692 0 0 12 0 0 0 0
702 1 16.5933666 2 2 5 2 3 0 0
703 1 18.3331757 0 0 12 0 0 0 0
704 1 15.1769381 0 1 10 2 0 0 0
705 1 14.0992727 0 2 8 2 0 0 0
706 1 14.6330529 0 0 12 0 0 0 0
707 1 17.371788 0 3 6 4 0 0 0
708 1 15.1037388 0 1 10 2 0 0 0
709 1 15.3450995 0 2 8 2 0 0 0
710 1 13.8377915 1 0 9 3 0 0 0
711 1 14.3858252 0 0 12 0 0 0 0
712 1 14.0595036 0 1 10 3 0 0 0
713 1 17.6899891 2 3 3 5 3 0 0
714 1 16.7213764 0 3 6 5 0 0 0
715 1 14.7215023 0 3 6 4 0 0 0
716 1 16.1517277 0 1 10 2 0 0 0
717 1 15.9207736 0 2 8 2 0 0 0
718 1 14.5872116 0 0 12 0 0 0 0
719 1 15.0685129 1 3 4 5 1 0 0
720 1 15.7186632 1 1 8 3 1 0 0
721 1 15.6501894 0 1 10 2 0 0 0
722 1 15.3735428 0 1 10 2 0 0 0
723 1 14.5246687 0 2 8 2 0 0 0
724 1 15.7695217 1 2 6 2 1 0 0
725 1 14.3023234 0 0 12 0 0 0 0
726 1 17.9417896 3 2 2 4 3 0 0
727 1 14.0832529 0 3 6 4 0 0 0
728 1 12.7391348 0 0 12 0 0 0 0
729 1 14.8234978 1 4 4 3 1 1 0
730 1 14.3222847 1 0 9 3 0 0 0
731 1 13.7809267 0 0 12 0 0 0 0
732 1 15.088294 1 3 4 5 1 0 0
733 1 14.77069 0 0 12 0 0 0 0
734 1 16.15765 0 1 10 4 0 0 0
735 1 14.1936665 0 2 8 2 0 0 0
736 1 15.0386963 0 3 6 4 0 0 0
737 1 14.9345742 0 1 10 2 0 0 0
738 1 14.4967938 1 2 5 4 0 0 0
739 1 13.8997908 1 2 6 2 1 0 0
740 1 15.9507438 0 2 8 2 0 0 0
741 1 13.8253374 0 0 12 0 0 0 0
742 1 16.425787 0 2 8 3 0 0 0
743 1 17.5375843 1 3 4 6 1 0 0
744 1 14.598032 0 0 12 0 0 0 0
745 1 13.5900955 0 0 12 0 0 0 0
746 1 17.4912033 0 3 6 5 0 0 0
747 1 18.3621578 0 3 7 2 1 0 0
748 1 15.1539927 0 0 12 0 0 0 0
749 1 14.3836889 1 0 9 3 0 0 0
750 1 15.3402338 0 0 12 0 0 0 0
751 1 15.7326412 1 2 6 3 1 0 0
752 1 13.9261942 0 0 12 0 0 0 0
753 1 15.0683556 0 1 10 2 0 0 0
754 1 17.0378056 1 3 3 4 0 0 0
755 1 14.1867743 0 3 6 3 0 0 0
756 1 15.8317967 0 2 8 2 0 0 0
757 1 14.6218777 0 1 10 2 0 0 0
758 1 14.8159266 0 2 8 2 0 0 0
759 1 14.6418638 1 2 6 3 1 0 0
760 1 15.4359236 0 1 10 2 0 0 0
761 1 14.5149565 1 2 6 3 1 0 0
762 1 17.2145348 0 4 4 3 0 0 0
763 1 14.6299753 0 3 6 4 0 0 0
764 1 15.8265953 0 3 6 5 0 0 0
765 1 14.9539118 0 1 10 2 0 0 0
766 1 13.8557006 0 0 12 0 0 0 0
767 1 14.8243962 0 0 12 0 0 0 0
768 1 15.5100851 0 0 12 0 0 0 0
769 1 16.2511044 0 3 6 4 0 0 0
770 1 12.8512078 0 2 8 1 0 0 0
771 1 13.885213 1 0 9 3 0 0 0
772 1 14.0218573 1 0 9 3 0 0 0
773 1 14.2746849 0 2 8 2 0 0 0
774 1 14.8050881 0 3 7 4 1 0 0
775 1 14.9528466 0 2 8 3 0 0 0
776 1 14.8255911 0 4 4 3 0 0 0
777 1 14.9428396 0 1 10 2 0 0 0
778 1 15.182745 0 4 4 6 0 0 0
779 1 14.69378 0 2 8 2 0 0 0
780 1 14.702816 0 3 6 3 0 0 0
781 1 16.6239949 1 2 6 3 1 0 0
782 1 16.3399639 1 2 6 3 1 0 0
783 1 14.3473435 0 0 12 0 0 0 0
784 1 13.9823074 1 2 5 3 0 0 0
785 1 15.2854576 0 1 10 2 0 0 0
786 1 13.0721588 0 0 12 0 0 0 0
787 1 15.35987 0 0 12 2 0 0 0
788 1 14.0643301 0 0 12 0 0 0 0
789 1 15.4181843 0 2 8 4 0 0 0
790 1 15.4179621 0 2 8 2 0 0 0
791 1 12.0517893 0 2 8 1 0 0 0
792 1 13.7981196 0 0 12 0 0 0 0
793 1 14.5239983 0 0 12 0 0 0 0
794 1 16.02668 0 2 8 4 0 0 0
795 1 15.2774668 0 2 8 3 0 0 0
796 1 13.806859 0 0 12 0 0 0 0
797 1 12.6695385 0 0 12 0 0 0 0
798 1 15.8094921 0 1 10 2 0 0 0
799 1 14.9556532 0 2 8 2 0 0 0
800 1 14.8118353 0 3 6 3 0 0 0
801 1 18.1052876 0 3 6 6 0 0 0
802 1 15.7154989 0 4 4 6 0 0 0
803 1 15.6834889 0 4 4 3 0 0 0
804 1 15.2072268 2 2 4 4 0 1 0
805 1 14.9483644 0 3 6 5 0 0 0
806 1 15.2960186 0 2 8 2 0 0 0
807 1 16.1550274 1 1 9 2 2 0 0
808 1 15.6188813 1 1 8 1 1 0 0
809 1 13.4993544 0 0 12 0 0 0 0
810 1 13.839821 0 3 7 3 1 0 0
811 1 16.1081371 1 3 5 3 2 0 0
812 1 15.4813919 0 0 12 0 0 0 0
813 1 14.6964607 0 0 12 0 0 0 0
814 1 16.6255474 0 4 4 6 0 0 0
815 1 13.7181111 0 3 6 5 0 0 0
816 1 13.5452166 0 2 8 0 0 0 0
817 1 14.9121666 0 2 8 1 0 0 0
818 1 13.5853062 0 0 12 0 0 0 0
819 1 15.0001278 0 0 12 0 0 0 0
820 1 15.1604223 0 0 12 0 0 0 0
821 1 15.1852865 0 2 8 4 0 0 0
822 1 13.6477881 0 0 12 0 0 0 0
823 1 13.571208 0 0 12 0 0 0 0
824 1 14.1490212 0 1 10 2 0 0 0
825 1 13.4155312 0 0 12 0 0 0 0
826 1 15.6519299 0 1 10 2 0 0 0
827 1 13.2551308 0 1 10 2 0 0 0
828 1 17.0206051 0 5 3 5 1 0 0
829 1 14.8728448 0 3 6 2 0 0 0
830 1 13.9282342 0 0 12 0 0 0 0
831 1 15.5763369 0 0 12 0 0 0 0
832 1 15.9994908 0 2 8 2 0 0 0
833 1 15.9442092 0 3 6 4 0 0 0
834 1 13.827159 0 3 6 4 0 0 0
835 1 15.8986292 0 1 10 2 0 0 0
836 1 14.0556021 0 0 12 0 0 0 0
837 1 16.0281982 0 4 4 6 0 0 0
838 1 15.4142208 0 2 8 2 0 0 0
839 1 13.2716971 1 1 8 1 1 0 0
840 1 16.3304138 0 2 8 2 0 0 0
841 1 17.1335907 0 1 10 3 0 0 0
842 1 16.8746224 3 2 4 1 3 1 0
843 1 12.9639522 0 2 8 2 0 0 0
844 1 13.943122 0 3 6 5 0 0 0
845 1 16.216013 0 2 8 1 0 0 0
846 1 14.7838459 0 0 12 0 0 0 0
847 1 15.3470841 1 1 8 3 1 0 0
848 1 15.7021628 0 2 8 3 0 0 0
849 1 13.6324244 0 0 12 0 0 0 0
850 1 15.9414282 0 0 12 0 0 0 0
851 1 16.1840687 0 3 6 4 0 0 0
852 1 15.7687073 0 1 10 2 0 0 0
853 1 14.8962422 0 3 6 4 0 0 0
854 1 14.3791905 0 2 8 2 0 0 0
855 1 13.8460332 1 2 5 4 0 0 0
856 1 13.9295664 0 1 10 2 0 0 0
857 1 16.1527577 0 3 8 2 2 0 0
858 1 15.0261316 0 0 12 0 0 0 0
859 1 14.0322905 0 0 12 0 0 0 0
860 1 15.9869108 0 1 10 2 0 0 0
861 1 13.7347718 0 4 4 6 0 0 0
862 1 15.2725039 0 3 6 4 0 0 0
863 1 16.8178272 1 1 9 2 2 0 0
864 1 14.1453095 0 1 10 2 0 0 0
865 1 15.5158997 0 1 10 2 0 0 0
866 1 16.3514195 1 2 5 5 0 0 0
867 1 15.2767172 1 1 8 3 1 0 0
868 1 14.6463642 1 0 9 3 0 0 0
869 1 17.0931034 0 3 6 3 0 0 0
870 1 16.309412 0 2 8 5 0 0 0
871 1 14.2298222 0 0 12 0 0 0 0
872 1 14.8955984 0 2 8 4 0 0 0
873 1 14.9885112 0 4 5 4 1 0 0
874 1 14.8254471 0 3 6 5 0 0 0
875 1 14.3653011 0 0 12 0 0 0 0
876 1 17.3281536 0 4 4 5 0 0 0
877 1 13.9950954 1 2 6 3 1 0 0
878 1 14.1030846 0 0 12 0 0 0 0
879 1 14.0021257 0 1 10 2 0 0 0
880 1 15.0353813 0 1 10 2 0 0 0
881 1 15.1002483 0 1 10 2 0 0 0
882 1 15.3019524 0 1 10 2 0 0 0
883 1 15.6535607 0 4 5 4 1 0 0
884 1 15.849206 0 1 10 2 0 0 0
885 1 13.525651 0 3 6 4 0 0 0
886 1 14.211915 1 2 6 4 1 0 0
887 1 14.155014 0 1 10 2 0 0 0
888 1 14.9348116 0 1 10 2 0 0 0
889 1 15.1460505 0 2 8 2 0 0 0
890 1 15.0258312 0 0 12 0 0 0 0
891 1 13.6225176 0 3 6 3 0 0 0
892 1 13.3197966 0 2 8 1 0 0 0
893 1 14.7996321 0 3 7 2 1 0 0
894 1 16.0518322 0 2 8 3 0 0 0
895 1 16.3894653 0 3 6 5 0 0 0
896 1 14.6605139 0 2 8 2 0 0 0
897 1 16.3824196 0 4 4 3 0 0 0
898 1 15.6747303 0 1 10 2 0 0 0
899 1 13.9044228 0 1 10 2 0 0 0
900 1 13.9998504 0 2 8 2 0 0 0
901 1 16.1452446 1 3 3 6 0 0 0
902 1 14.2333145 0 0 12 0 0 0 0
903 1 16.4150734 0 3 6 4 0 0 0
904 1 14.67097 0 2 8 2 0 0 0
905 1 15.1818686 0 4 4 6 0 0 0
906 1 14.2676811 0 4 5 4 1 0 0
907 1 16.16119 0 3 6 3 0 0 0
908 1 14.4939404 0 2 8 2 0 0 0
909 1 14.9096204 1 3 5 2 2 0 0
910 1 16.4183369 0 3 6 5 0 0 0
911 1 15.1977606 0 2 8 2 0 0 0
912 1 14.5465803 0 2 8 4 0 0 0
913 1 14.937894 0 2 8 2 0 0 0
914 1 12.9938726 0 0 12 0 0 0 0
915 1 14.1880207 0 4 4 4 0 0 0
916 1 14.6346569 0 2 8 2 0 0 0
917 1 15.6673355 0 3 6 4 0 0 0
918 1 14.669343 0 0 12 0 0 0 0
919 1 14.7363234 0 2 8 4 0 0 0
920 1 14.6256562 0 0 12 0 0 0 0
921 1 14.0398521 0 3 6 4 0 0 0
922 1 15.8977262 0 3 6 4 0 0 0
923 1 16.238678 0 2 8 1 0 0 0
924 1 14.5478068 0 2 8 2 0 0 0
925 1 14.0131502 0 2 8 2 0 0 0
926 1 14.3799505 0 0 12 0 0 0 0
927 1 14.6932907 1 3 5 3 2 0 0
928 1 14.0041418 0 0 12 0 0 0 0
929 1 13.752223 0 0 12 0 0 0 0
930 1 14.8515616 0 3 6 4 0 0 0
931 1 13.0428715 0 0 12 0 0 0 0
932 1 15.9395352 1 0 9 3 0 0 0
933 1 15.9166384 0 3 6 5 0 0 0
934 1 16.1480217 0 2 8 1 0 0 0
935 1 15.6604872 1 2 5 4 0 0 0
936 1 16.0351868 0 2 8 4 0 0 0
937 1 14.402422 0 2 8 4 0 0 0
938 1 15.6791229 0 4 4 6 0 0 0
939 1 16.8566666 2 2 4 3 2 0 0
940 1 12.8906718 0 0 12 0 0 0 0
941 1 15.1170979 0 2 8 4 0 0 0
942 1 12.7633829 0 0 12 0 0 0 0
943 1 17.542099 2 2 3 5 1 0 0
944 1 15.8374577 0 3 6 4 0 0 0
945 1 15.6262484 1 2 7 2 2 0 0
946 1 14.611044 0 1 10 2 0 0 0
947 1 15.4337302 0 1 10 2 0 0 0
948 1 15.1005726 0 0 12 0 0 0 0
949 1 13.7246495 0 0 12 0 0 0 0
950 1 14.7093954 0 0 12 0 0 0 0
951 1 14.754962 0 1 10 3 0 0 0
952 1 15.9729738 1 2 6 3 1 0 0
953 1 15.6804323 0 1 10 2 0 0 0
954 1 16.2176323 0 2 8 3 0 0 0
955 1 14.9673338 1 4 2 4 1 0 0