ITEM: TIMESTEP
0
ITEM: NUMBER OF ATOMS
2000
ITEM: BOX BOUNDS pp pp pp
0.299875 32.1301231
0.299875 32.1301231
0.299875 32.1301231
ITEM: ATOMS id type AtomicVolume VoronoiIndex3 VoronoiIndex4 VoronoiIndex5 VoronoiIndex6 VoronoiIndex7 VoronoiIndex8 VoronoiIndex9
1 1 17.1812019 0 3 6 4 0 0 0
2 1 13.6114588 0 0 12 0 0 0 0
3 1 14.1139536 0 0 12 0 0 0 0
4 1 16.9181882 0 2 8 1 0 0 0
5 1 15.0472784 0 4 5 4 1 0 0
6 1 15.7051745 0 5 3 5 1 0 0
7 1 15.9677238 0 4 5 4 1 0 0
8 1 14.5592346 0 0 12 0 0 0 0
9 1 14.9379712 1 2 7 2 2 0 0
10 1 16.085228 0 1 10 2 0 0 0
11 1 14.9110708 1 2 5 4 0 0 0
12 1 14.4578867 0 0 12 0 0 0 0
13 1 15.0938053 0 2 8 4 0 0 0
14 1 17.8052311 1 2 6 3 1 0 0
15 1 15.1332474 1 0 9 3 0 0 0
16 1 14.049077 0 0 12 0 0 0 0
17 1 15.4907065 2 0 8 2 2 0 0
18 1 14.593442 0 1 10 2 0 0 0
19 1 14.4483443 0 0 12 0 0 0 0
20 1 14.7072602 0 3 6 3 0 0 0
21 1 13.6934166 2 0 8 2 2 0 0
22 1 15.0318146 0 1 10 2 0 0 0
23 1 14.9859544 0 3 6 3 0 0 0
24 1 13.5509177 0 0 12 0 0 0 0
25 1 15.876835 0 2 8 2 0 0 0
26 1 14.9021616 0 1 10 2 0 0 0
27 1 14.7371445 3 2 1 4 2 0 0
28 1 15.178297 4 1 2 5 2 1 0
29 1 16.8220825 0 1 10 2 0 0 0
30 1 15.4430962 0 2 8 2 0 0 0
31 1 15.0949516 0 2 8 2 0 0 0
32 1 14.6891394 0 0 12 0 0 0 0
33 1 15.0389452 1 1 8 2 1 0 0
34 1 15.6052675 1 2 7 3 2 0 0
35 1 13.117424 0 3 6 4 0 0 0
36 1 14.4167862 0 3 6 4 0 0 0
37 1 13.4586745 0 2 8 3 0 0 0
38 1 14.9276772 0 2 8 2 0 0 0
39 1 15.7770958 2 1 7 2 1 1 0
40 1 14.7366333 0 1 10 2 0 0 0
41 1 15.6343956 0 2 8 4 0 0 0
42 1 16.5283013 1 0 9 3 0 0 0
43 1 13.5170775 0 0 12 0 0 0 0
44 1 14.960435 1 3 4 5 1 0 0
45 1 12.9069386 0 0 12 0 0 0 0
46 1 13.6265211 1 2 6 3 1 0 0
47 1 13.2099629 0 3 6 2 0 0 0
48 1 16.4772721 0 2 8 4 0 0 0
49 1 14.0569372 0 1 10 2 0 0 0
50 1 13.5251084 0 0 12 0 0 0 0
51 1 15.4142714 1 3 4 3 1 0 0
52 1 16.315958 0 0 12 0 0 0 0
53 1 14.244216 0 2 8 2 0 0 0
54 1 14.1014471 1 2 6 3 1 0 0
55 1 15.369298 0 0 12 0 0 0 0
56 1 14.7010107 0 1 10 2 0 0 0
57 1 16.6042786 2 2 3 5 1 0 0
58 1 14.1614676 0 2 8 2 0 0 0
59 1 17.3865566 1 2 5 5 0 0 0
60 1 13.904254 1 0 9 3 0 0 0
61 1 15.7901068 0 3 6 4 0 0 0
62 1 14.2139521 0 1 10 2 0 0 0
63 1 14.1579199 1 0 9 3 0 0 0
64 1 15.1112385 0 3 6 3 0 0 0
65 1 15.5586348 1 2 7 2 2 0 0
66 1 14.5447712 0 0 12 0 0 0 0
67 1 15.3519993 0 0 12 0 0 0 0
68 1 14.4646969 2 2 4 3 2 0 0
69 1 13.030097 0 2 8 1 0 0 0
70 1 14.1154032 0 0 12 0 0 0 0
71 1 13.600339 0 2 8 1 0 0 0
72 1 13.0400248 0 0 12 0 0 0 0
73 1 14.3345595 0 1 10 2 0 0 0
74 1 14.2913065 0 2 8 1 0 0 0
75 1 15.9471322 0 1 10 2 0 0 0
76 1 14.4176169 0 4 4 6 0 0 0
77 1 15.3489905 1 1 8 3 1 0 0
78 1 15.6311178 0 1 10 2 0 0 0
79 1 15.076828 1 2 6 2 1 0 0
80 1 14.8773852 0 2 8 2 0 0 0
81 1 14.9398022 0 0 12 0 0 0 0
82 1 14.4453697 0 1 10 2 0 0 0
83 1 16.4087658 0 3 6 5 0 0 0
84 1 14.3478747 0 2 8 2 0 0 0
85 1 13.9236422 0 2 8 2 0 0 0
86 1 13.972229 1 0 9 3 0 0 0
87 1 14.7293768 0 0 12 0 0 0 0
88 1 16.0172195 0 3 6 4 0 0 0
89 1 14.1238604 0 2 8 2 0 0 0
90 1 16.3074246 0 2 8 2 0 0 0
91 1 15.3961878 0 1 10 2 0 0 0
92 1 12.9173946 1 2 6 2 1 0 0
93 1 15.7509728 0 2 8 2 0 0 0
94 1 12.9048978 0 0 12 0 0 0 0
95 1 14.9705172 0 2 8 4 0 0 0
96 1 13.705142 0 0 12 0 0 0 0
97 1 15.996541 0 2 8 3 0 0 0
98 1 15.7386866 0 1 10 2 0 0 0
99 1 13.8581162 0 2 8 4 0 0 0
100 1 16.4192352 0 2 8 3 0 0 0
101 1 14.0257492 0 2 8 2 0 0 0
102 1 14.4741841 0 0 12 0 0 0 0
103 1 16.2611923 0 3 6 4 0 0 0
104 1 12.8366556 0 2 8 2 0 0 0
105 1 13.5444517 0 0 12 0 0 0 0
106 1 13.4786835 0 4 4 6 0 0 0
107 1 13.9301672 0 0 12 0 0 0 0
108 1 14.7861004 1 2 7 2 2 0 0
109 1 13.5890446 0 0 12 0 0 0 0
110 1 15.3077412 0 2 8 4 0 0 0
111 1 15.2807408 0 3 6 2 0 0 0
112 1 15.33251 1 3 4 5 1 0 0
113 1 15.4974613 0 1 10 2 0 0 0
114 1 16.8705216 0 4 4 5 0 0 0
115 1 14.3618784 0 1 10 3 0 0 0
116 1 14.9852324 0 2 8 3 0 0 0
117 1 15.7209034 1 3 4 5 1 0 0
118 1 14.1279612 0 2 8 4 0 0 0
119 1 13.3446751 0 0 12 0 0 0 0
120 1 13.4424114 0 1 10 2 0 0 0
121 1 14.8895436 0 3 6 2 0 0 0
122 1 14.6692677 0 2 8 2 0 0 0
123 1 15.60429 0 4 5 4 1 0 0
124 1 15.0690069 0 0 12 0 0 0 0
125 1 14.2968302 0 1 10 2 0 0 0
126 1 16.20154 1 2 6 3 1 0 0
127 1 15.6480999 1 2 6 3 1 0 0
128 1 14.4527855 0 2 8 2 0 0 0
129 1 14.9713336 0 1 10 2 0 0 0
130 1 15.3199473 1 0 9 3 0 0 0
131 1 14.4250984 0 4 4 6 0 0 0
132 1 16.2537556 0 2 8 2 0 0 0
133 1 13.195529 0 0 12 0 0 0 0
134 1 16.0764446 0 3 7 4 1 0 0
135 1 18.3918877 3 2 3 3 2 1 0
136 1 15.4600659 0 1 10 2 0 0 0
137 1 16.7156506 0 4 4 7 0 0 0
138 1 14.3323689 0 0 12 0 0 0 0
139 1 14.6252661 0 3 6 3 0 0 0
140 1 15.0192947 1 2 6 2 1 0 0
141 1 16.7120953 0 2 8 6 0 0 0
142 1 14.1873274 0 0 12 0 0 0 0
143 1 14.7665987 0 0 12 0 0 0 0
144 1 13.5744763 0 0 12 0 0 0 0
145 1 14.1743269 0 2 8 2 0 0 0
146 1 15.3031025 0 1 10 3 0 0 0
147 1 13.4724388 0 4 5 4 1 0 0
148 1 14.7621804 0 3 6 3 0 0 0
149 1 14.7925043 0 3 6 4 0 0 0
150 1 13.9364758 0 0 12 0 0 0 0
151 1 15.5823326 0 3 6 4 0 0 0
152 1 14.5825463 0 1 10 2 0 0 0
153 1 15.011261 0 4 4 6 0 0 0
154 1 13.8908978 0 1 10 2 0 0 0
155 1 15.8312741 0 1 10 2 0 0 0
156 1 15.915699 0 1 10 2 0 0 0
157 1 14.1431313 0 0 12 0 0 0 0
158 1 15.613451 0 2 8 2 0 0 0
159 1 13.1667357 0 2 8 2 0 0 0
160 1 14.431531 0 1 10 2 0 0 0
161 1 15.0449028 1 4 3 2 2 0 0
162 1 13.4682369 0 1 10 2 0 0 0
163 1 16.3028736 0 1 10 3 0 0 0
164 1 13.7299166 0 0 12 0 0 0 0
165 1 14.40345 0 0 12 2 0 0 0
166 1 13.4939375 0 0 12 0 0 0 0
167 1 13.8458472 0 0 12 0 0 0 0
168 1 15.1814385 1 0 9 3 0 0 0
169 1 15.136879 1 3 4 5 1 0 0
170 1 14.9272776 0 2 8 2 0 0 0
171 1 16.3629913 0 4 4 5 0 0 0
172 1 15.3872204 2 0 8 2 2 0 0
173 1 16.0002708 2 3 3 3 1 1 0
174 1 13.2764959 0 1 10 2 0 0 0
175 1 15.3098173 0 2 8 2 0 0 0
176 1 16.5534477 0 3 6 5 0 0 0
177 1 15.5023947 0 2 8 2 0 0 0
178 1 14.6079102 0 0 12 0 0 0 0
179 1 16.4083138 0 1 10 2 0 0 0
180 1 14.6320629 0 2 8 1 0 0 0
181 1 14.4973049 0 1 10 3 0 0 0
182 1 15.2093878 0 1 10 2 0 0 0
183 1 15.4374876 0 3 6 3 0 0 0
184 1 13.7382097 1 0 9 3 0 0 0
185 1 15.3401261 0 0 12 0 0 0 0
186 1 13.7021179 0 0 12 0 0 0 0
187 1 15.1299267 0 1 10 2 0 0 0
188 1 15.3202276 0 3 6 4 0 0 0
189 1 13.2548895 0 0 12 0 0 0 0
190 1 13.6208306 0 0 12 0 0 0 0
191 1 16.3612137 1 2 5 5 0 0 0
192 1 15.9695368 1 1 8 3 1 0 0
193 1 15.9921332 1 2 5 3 0 0 0
194 1 12.7255917 2 6 0 1 4 1 0
195 1 15.3376532 0 2 8 2 0 0 0
196 1 13.4651594 0 1 10 2 0 0 0
197 1 14.911688 0 0 12 0 0 0 0
198 1 14.8232947 0 0 12 0 0 0 0
199 1 16.4716149 0 1 10 2 0 0 0
200 1 13.8331862 0 1 10 2 0 0 0
201 1 14.0703058 0 0 12 0 0 0 0
202 1 13.8004093 0 1 10 2 0 0 0
203 1 15.278141 0 1 10 2 0 0 0
204 1 15.140646 0 1 10 2 0 0 0
205 1 17.5680466 0 2 8 4 0 0 0
206 1 14.7049999 0 3 7 2 1 0 0
207 1 17.8050747 0 4 4 7 0 0 0
208 1 15.5091067 0 0 12 0 0 0 0
209 1 15.0426912 0 0 12 0 0 0 0
210 1 14.7776184 1 0 9 3 0 0 0
211 1 14.9332676 0 2 8 3 0 0 0
212 1 15.1057406 1 2 6 2 1 0 0
213 1 13.978819 0 0 12 0 0 0 0
214 1 14.7746859 0 0 12 0 0 0 0
215 1 13.845523 0 0 12 0 0 0 0
216 1 16.1300812 0 4 4 4 0 0 0
217 1 15.5790291 0 1 10 2 0 0 0
218 1 14.0106621 0 2 8 1 0 0 0
219 1 14.5347452 1 2 6 3 1 0 0
220 1 14.3138676 0 4 4 5 0 0 0
221 1 15.1195154 0 2 8 2 0 0 0
222 1 14.3020649 0 0 12 0 0 0 0
223 1 13.893673 0 0 12 0 0 0 0
224 1 16.2348309 0 3 6 4 0 0 0
225 1 16.6616612 1 2 6 4 1 0 0
226 1 14.0469484 0 0 12 0 0 0 0
227 1 15.2787838 0 0 12 0 0 0 0
228 1 14.3377409 0 2 8 2 0 0 0
229 1 15.9237156 0 3 6 4 0 0 0
230 1 14.2983952 1 3 5 2 2 0 0
231 1 14.2846708 0 2 8 3 0 0 0
232 1 12.9746866 0 1 10 2 0 0 0
233 1 15.9788866 0 3 6 5 0 0 0
234 1 14.4868889 0 2 8 2 0 0 0
235 1 15.5959397 0 0 12 0 0 0 0
236 1 14.4837733 3 1 5 1 2 1 0
237 1 14.6477499 1 2 6 3 1 0 0
238 1 14.4534817 0 1 10 2 0 0 0
239 1 15.856267 2 4 2 2 4 0 0
240 1 17.4782181 0 3 6 5 0 0 0
241 1 13.8155833 0 0 12 0 0 0 0
242 1 16.8340988 0 1 10 3 0 0 0
243 1 15.8193198 0 3 6 4 0 0 0
244 1 15.3984156 0 0 12 0 0 0 0
245 1 16.507576 0 2 8 2 0 0 0
246 1 14.5769377 0 0 12 0 0 0 0
247 1 13.7837382 0 0 12 0 0 0 0
248 1 15.421093 1 2 5 4 0 0 0
249 1 14.0856829 0 2 8 2 0 0 0
250 1 13.7286167 0 1 10 2 0 0 0
251 1 15.718297 0 3 6 4 0 0 0
252 1 15.0871382 0 0 12 0 0 0 0
253 1 14.8196593 0 0 12 0 0 0 0
254 1 15.2498608 0 1 10 2 0 0 0
255 1 14.8985902 0 2 8 1 0 0 0
256 1 14.4033003 0 3 6 4 0 0 0
257 1 17.0553246 2 2 3 5 1 0 0
258 1 15.8497906 0 0 12 0 0 0 0
259 1 15.329978 0 1 10 3 0 0 0
260 1 16.1099072 0 3 6 4 0 0 0
261 1 13.4204397 0 2 8 1 0 0 0
262 1 16.1836968 0 3 6 5 0 0 0
263 1 14.6290837 0 1 10 2 0 0 0
264 1 16.4380875 0 2 8 2 0 0 0
265 1 13.9738694 0 0 12 0 0 0 0
266 1 14.5925884 0 2 8 1 0 0 0
267 1 16.5610409 0 2 9 2 1 0 0
268 1 14.7312489 0 2 8 3 0 0 0
269 1 16.5663967 0 3 7 4 1 0 0
270 1 15.9692068 0 3 6 3 0 0 0
271 1 15.9127026 0 3 6 4 0 0 0
272 1 14.8204575 0 1 10 2 0 0 0
273 1 15.915846 0 4 4 4 0 0 0
274 1 14.9310112 0 0 12 0 0 0 0
275 1 13.2909508 0 2 8 1 0 0 0
276 1 17.5200577 0 4 4 6 0 0 0
277 1 14.8524238 0 2 8 2 0 0 0
278 1 14.826787 0 3 6 4 0 0 0
279 1 14.7526245 0 0 12 0 0 0 0
280 1 16.2315445 0 3 6 4 0 0 0
281 1 14.3792906 0 3 6 2 0 0 0
282 1 13.7518196 0 1 10 2 0 0 0
283 1 16.0230751 0 2 8 4 0 0 0
284 1 15.8966484 0 0 12 0 0 0 0
285 1 14.7245446 2 2 4 4 0 1 0
286 1 16.1620007 0 2 8 3 0 0 0
287 1 12.9097652 0 1 10 2 0 0 0
288 1 12.9874602 0 0 12 0 0 0 0
289 1 16.3335724 1 3 5 2 2 0 0
290 1 16.8730908 1 3 4 3 1 0 0
291 1 15.5796547 0 3 6 4 0 0 0
292 1 13.571333 0 1 10 2 0 0 0
293 1 13.9541788 0 2 8 1 0 0 0
294 1 12.4080916 0 0 12 0 0 0 0
295 1 15.720706 0 3 6 3 0 0 0
296 1 17.1405869 1 2 7 2 2 0 0
297 1 18.3196869 0 2 8 4 0 0 0
298 1 15.1236868 1 1 8 1 1 0 0
299 1 16.5832329 0 4 4 3 0 0 0
300 1 15.1769638 2 1 7 2 1 1 0
301 1 16.3427925 0 3 6 4 0 0 0
302 1 14.9383478 0 2 8 2 0 0 0
303 1 13.6815567 1 2 6 3 1 0 0
304 1 14.9656744 1 2 6 3 1 0 0
305 1 14.4526406 0 3 6 4 0 0 0
306 1 15.3389301 0 0 12 0 0 0 0
307 1 14.8186989 0 3 6 4 0 0 0
308 1 13.851246 0 0 12 0 0 0 0
309 1 13.7553282 0 0 12 0 0 0 0
310 1 15.3945637 1 2 6 3 1 0 0
311 1 16.2322731 1 0 9 3 0 0 0
312 1 15.0340796 2 3 2 5 2 0 0
313 1 16.4527035 0 4 4 7 0 0 0
314 1 14.6211844 0 0 12 0 0 0 0
315 1 14.3207026 0 0 12 0 0 0 0
316 1 15.4003258 1 2 7 2 2 0 0
317 1 14.8250685 0 1 10 2 0 0 0
318 1 16.8666172 0 4 4 5 0 0 0
319 1 15.187171 0 4 4 7 0 0 0
320 1 15.164959 0 2 9 1 1 0 0
321 1 14.2233391 0 1 10 2 0 0 0
322 1 15.6890917 0 2 8 2 0 0 0
323 1 16.3573208 0 1 10 2 0 0 0
324 1 15.853756 0 2 8 2 0 0 0
325 1 17.0424118 2 2 4 2 2 0 0
326 1 14.5158062 0 0 12 0 0 0 0
327 1 16.2890091 0 3 6 5 0 0 0
328 1 14.8777114 0 1 10 2 0 0 0
329 1 13.9537946 0 0 12 0 0 0 0
330 1 15.8267546 0 3 6 4 0 0 0
331 1 14.3715792 0 0 12 0 0 0 0
332 1 16.3823261 1 2 5 4 0 0 0
333 1 15.262454 1 3 4 5 1 0 0
334 1 14.7177201 3 2 3 4 2 1 0
335 1 15.6730223 0 3 6 4 0 0 0
336 1 13.824915 0 4 4 4 0 0 0
337 1 14.8676082 0 3 6 3 0 0 0
338 1 17.0454712 1 3 4 6 1 0 0
339 1 13.3666391 0 0 12 0 0 0 0
340 1 15.8464012 1 3 5 3 2 0 0
341 1 16.2675362 0 2 8 1 0 0 0
342 1 14.3148003 1 3 4 3 1 0 0
343 1 15.1406651 0 2 8 2 0 0 0
344 1 15.5107117 0 3 6 4 0 0 0
345 1 16.7695503 0 2 8 2 0 0 0
346 1 14.2615175 0 0 12 0 0 0 0
347 1 15.2864399 1 2 5 4 0 0 0
348 1 14.3943319 0 0 12 0 0 0 0
349 1 15.9144468 0 2 8 2 0 0 0
350 1 14.4293518 0 2 8 2 0 0 0
351 1 17.0958538 0 4 6 3 2 0 0
352 1 14.7659054 0 2 8 1 0 0 0
353 1 15.3657265 0 2 8 2 0 0 0
354 1 13.3387566 0 1 10 2 0 0 0
355 1 14.8715296 0 2 8 1 0 0 0
356 1 14.1722784 0 1 10 2 0 0 0
357 1 13.447978 0 0 12 0 0 0 0
358 1 15.6623898 0 1 10 2 0 0 0
359 1 14.7574282 0 1 10 2 0 0 0
360 1 14.1233854 0 0 12 0 0 0 0
361 1 15.0539904 0 0 12 0 0 0 0
362 1 16.1183167 1 2 5 4 0 0 0
363 1 14.8459988 0 1 10 2 0 0 0
364 1 14.6466542 0 2 8 2 0 0 0
365 1 15.0072308 0 2 8 1 0 0 0
366 1 14.0451221 0 0 12 0 0 0 0
367 1 12.7535515 0 0 12 0 0 0 0
368 1 15.8682432 2 2 5 2 3 0 0
369 1 15.9383726 0 1 10 3 0 0 0
370 1 14.3869076 0 1 10 2 0 0 0
371 1 14.7825213 0 3 6 4 0 0 0
372 1 13.8405418 0 1 10 2 0 0 0
373 1 15.8831864 1 0 9 3 0 0 0
374 1 13.927394 0 1 10 2 0 0 0
375 1 15.589695 1 2 6 4 1 0 0
376 1 16.8418046 0 1 10 2 0 0 0
377 1 16.013134 0 3 6 4 0 0 0
378 1 15.0644121 0 3 6 4 0 0 0
379 1 15.4240942 0 3 6 3 0 0 0
380 1 14.9533958 0 2 8 2 0 0 0
381 1 14.7991524 0 0 12 0 0 0 0
382 1 12.9913474 0 0 12 0 0 0 0
383 1 13.987342 0 0 12 0 0 0 0
384 1 16.1000748 1 1 8 1 1 0 0
385 1 18.0681343 1 4 3 5 2 0 0
386 1 15.4362431 0 1 10 3 0 0 0
387 1 12.6959582 0 0 12 0 0 0 0
388 1 14.1141071 1 0 9 3 0 0 0
389 1 13.4904871 0 0 12 0 0 0 0
390 1 13.4372664 1 0 9 3 0 0 0
391 1 14.7942305 0 2 8 2 0 0 0
392 1 14.9590712 0 2 8 3 0 0 0
393 1 15.3864088 0 3 6 4 0 0 0
394 1 16.1134071 3 1 4 4 1 1 0
395 1 13.9360552 2 2 4 2 2 0 0
396 1 14.4780617 0 3 6 4 0 0 0
397 1 15.0187397 0 2 8 1 0 0 0
398 1 15.5671549 0 1 10 2 0 0 0
399 1 16.5621815 0 2 8 2 0 0 0
400 1 14.0985022 0 0 12 0 0 0 0
401 1 13.7873955 0 1 10 2 0 0 0
402 1 15.0090246 0 1 10 2 0 0 0
403 1 14.239172 0 1 10 2 0 0 0
404 1 15.4839859 1 2 5 4 0 0 0
405 1 15.7482701 0 2 8 2 0 0 0
406 1 15.4308405 0 1 10 2 0 0 0
407 1 16.1373787 1 0 9 3 0 0 0
408 1 14.4503823 0 2 8 2 0 0 0
409 1 14.3551893 0 0 12 0 0 0 0
410 1 16.0815754 1 3 5 3 2 0 0
411 1 15.4529848 1 0 9 3 0 0 0
412 1 15.0328274 1 2 5 4 0 0 0
413 1 14.8096314 0 3 6 3 0 0 0
414 1 14.3971348 0 3 6 3 0 0 0
415 1 14.4471407 0 1 10 2 0 0 0
416 1 15.9596158 0 2 8 2 0 0 0
417 1 14.9257746 0 2 8 2 0 0 0
418 1 14.3790093 1 0 9 3 0 0 0
419 1 14.194974 0 1 10 2 0 0 0
420 1 13.0779266 0 1 10 2 0 0 0
421 1 13.4199925 0 0 12 0 0 0 0
422 1 15.1494865 0 3 7 1 1 0 0
423 1 17.5205345 0 5 3 5 1 0 0
424 1 14.3338337 0 0 12 0 0 0 0
425 1 12.5691071 0 0 12 0 0 0 0
426 1 15.0864487 0 2 8 2 0 0 0
427 1 15.2160387 0 2 8 1 0 0 0
428 1 15.1228609 1 2 5 4 0 0 0
429 1 15.1454229 0 3 6 3 0 0 0
430 1 13.8408404 0 3 6 3 0 0 0
431 1 15.6351967 1 0 9 3 0 0 0
432 1 13.5080252 0 0 12 0 0 0 0
433 1 13.3614512 0 0 12 0 0 0 0
434 1 14.1204281 0 2 8 1 0 0 0
435 1 13.939045 0 0 12 0 0 0 0
436 1 17.2953053 0 5 3 4 1 0 0
437 1 14.5927887 0 2 8 5 0 0 0
438 1 14.0141335 0 0 12 0 0 0 0
439 1 13.8168497 0 2 8 1 0 0 0
440 1 14.2309876 0 1 10 2 0 0 0
441 1 17.3456078 0 2 8 2 0 0 0
442 1 16.4040127 0 3 6 5 0 0 0
443 1 15.9277688 0 2 8 4 0 0 0
444 1 16.2947254 0 3 6 4 0 0 0
445 1 13.56491 0 0 12 0 0 0 0
446 1 16.1937943 0 3 6 4 0 0 0
447 1 14.3272486 0 3 6 4 0 0 0
448 1 15.240551 2 2 3 5 1 0 0
449 1 15.4169445 1 2 5 4 0 0 0
450 1 14.5538216 0 1 10 2 0 0 0
451 1 15.4119625 0 5 2 6 0 0 0
452 1 15.4344664 0 1 10 3 0 0 0
453 1 14.7239714 1 1 8 3 1 0 0
454 1 13.6825772 0 0 12 0 0 0 0
455 1 13.9651214 0 0 12 0 0 0 0
456 1 15.7084236 0 3 6 4 0 0 0
457 1 15.8238564 0 1 10 2 0 0 0
458 1 14.958933 2 2 4 3 2 0 0
459 1 15.5912066 2 2 4 4 0 1 0
460 1 13.5115423 0 0 12 0 0 0 0
461 1 15.2407189 2 2 4 2 2 0 0
462 1 15.3611612 0 3 6 4 0 0 0
463 1 14.3921299 0 1 10 2 0 0 0
464 1 16.4198323 0 3 6 4 0 0 0
465 1 16.3306694 0 0 12 0 0 0 0
466 1 15.9816524 1 2 7 4 0 1 0
467 1 13.7285586 0 0 12 0 0 0 0
468 1 16.7279949 0 1 10 2 0 0 0
469 1 14.1736765 0 1 10 2 0 0 0
470 1 14.9145814 0 2 8 2 0 0 0
471 1 15.1699076 0 2 8 4 0 0 0
472 1 15.5210228 1 2 5 3 0 0 0
473 1 16.5194397 1 2 6 3 1 0 0
474 1 14.6779919 1 2 6 3 1 0 0
475 1 16.8395824 0 2 8 2 0 0 0
476 1 14.8222571 0 2 8 4 0 0 0
477 1 16.2755909 2 2 4 4 2 0 0
478 1 14.9132072 0 0 12 0 0 0 0
479 1 14.8379183 0 1 10 2 0 0 0
480 1 15.1957979 0 5 2 5 0 0 0
481 1 17.71455 0 4 4 6 0 0 0
482 1 17.2492657 0 4 4 5 0 0 0
483 1 13.1535063 0 0 12 0 0 0 0
484 1 14.1594935 0 2 8 1 0 0 0
485 1 15.4523993 0 0 12 0 0 0 0
486 1 14.5223713 1 3 4 4 1 0 0
487 1 14.0021677 0 0 12 0 0 0 0
488 1 13.2108765 0 0 12 0 0 0 0
489 1 15.5908461 0 4 4 5 0 0 0
490 1 13.0359125 0 0 12 0 0 0 0
491 1 15.4660139 0 1 10 2 0 0 0
492 1 14.4631558 0 2 8 2 0 0 0
493 1 16.1810131 0 3 6 4 0 0 0
494 1 14.3748045 1 3 3 6 0 0 0
495 1 12.5331249 0 0 12 0 0 0 0
496 1 14.7875195 0 3 6 4 0 0 0
497 1 16.4937172 0 3 6 6 0 0 0
498 1 14.1949663 0 2 8 2 0 0 0
499 1 14.3769856 2 3 2 4 2 0 0
500 1 14.6994486 1 2 6 2 1 0 0
501 1 14.6018505 0 0 12 0 0 0 0
502 1 15.8043881 1 3 5 2 2 0 0
503 1 16.4058037 0 3 6 4 0 0 0
504 1 15.2792835 1 2 6 3 1 0 0
505 1 14.1445513 0 3 6 5 0 0 0
506 1 14.3966942 1 2 5 4 0 0 0
507 1 14.7102375 0 2 8 2 0 0 0
508 1 15.7369261 0 0 12 0 0 0 0
509 1 13.7663222 3 2 2 4 3 0 0
510 1 15.6017971 4 1 4 2 0 3 0
511 1 15.1981335 0 3 6 3 0 0 0
512 1 16.5306511 0 2 8 2 0 0 0
513 1 16.2765465 0 3 6 4 0 0 0
514 1 13.8712654 1 2 6 3 1 0 0
515 1 14.0709353 0 3 6 5 0 0 0
516 1 15.0980682 0 1 10 2 0 0 0
517 1 14.8070917 0 1 10 2 0 0 0
518 1 14.3021412 0 0 12 0 0 0 0
519 1 15.0888357 0 2 8 3 0 0 0
520 1 15.4351359 0 2 8 2 0 0 0
521 1 16.5053654 0 1 10 3 0 0 0
522 1 16.6011544 0 3 6 4 0 0 0
523 1 14.9739476 0 1 10 2 0 0 0
524 1 14.3562279 0 2 8 1 0 0 0
525 1 16.1689148 0 2 8 2 0 0 0
526 1 14.5989504 0 3 6 4 0 0 0
527 1 15.3709173 0 1 10 2 0 0 0
528 1 15.5292368 0 1 10 2 0 0 0
529 1 13.4514818 0 0 12 0 0 0 0
530 1 17.0482788 0 4 7 1 3 0 0
531 1 16.7224522 1 2 5 5 0 0 0
532 1 12.3843985 0 0 12 0 0 0 0
533 1 15.0652285 1 1 7 5 0 0 0
534 1 14.1386108 0 0 12 0 0 0 0
535 1 15.2437887 0 2 8 4 0 0 0
536 1 16.7519284 0 0 12 0 0 0 0
537 1 13.9475928 0 1 10 2 0 0 0
538 1 15.693265 2 2 3 5 1 0 0
539 1 15.3917208 0 0 12 0 0 0 0
540 1 15.4225455 1 2 5 4 0 0 0
541 1 16.346035 1 3 3 7 0 0 0
542 1 15.2817907 0 1 10 2 0 0 0
543 1 16.2442722 1 3 4 5 1 0 0
544 1 13.8051739 0 2 8 4 0 0 0
545 1 14.8785648 0 1 10 2 0 0 0
546 1 12.6035939 0 2 8 1 0 0 0
547 1 14.52349 0 1 10 2 0 0 0
548 1 14.7177086 0 1 10 2 0 0 0
549 1 13.7190638 0 2 8 4 0 0 0
550 1 16.6011524 0 4 4 5 0 0 0
551 1 14.2115612 0 0 12 0 0 0 0
552 1 14.353447 0 0 12 0 0 0 0
553 1 14.557724 1 2 5 5 0 0 0
554 1 13.7216587 0 0 12 0 0 0 0
555 1 13.9864198 0 0 12 0 0 0 0
556 1 16.0991039 0 3 6 5 0 0 0
557 1 16.9560318 2 2 5 3 1 1 0
558 1 15.963421 0 3 6 4 0 0 0
559 1 15.9093056 1 1 8 1 1 0 0
560 1 16.1995277 3 2 3 4 1 0 1
561 1 17.1565437 2 4 2 3 4 0 0
562 1 15.4266329 0 2 8 2 0 0 0
563 1 13.8998738 0 1 10 2 0 0 0
564 1 16.8328648 3 2 3 2 2 1 0
565 1 13.8810978 1 2 6 3 1 0 0
566 1 14.4182711 0 1 10 2 0 0 0
567 1 13.3582897 0 3 6 4 0 0 0
568 1 15.8678046 0 2 8 4 0 0 0
569 1 14.8675958 0 1 10 2 0 0 0
570 1 14.2695913 0 0 12 0 0 0 0
571 1 16.128067 0 3 6 3 0 0 0
572 1 14.8209543 0 0 12 0 0 0 0
573 1 14.1370688 0 1 10 2 0 0 0
574 1 15.3501206 1 2 5 3 0 0 0
575 1 15.8013211 1 2 6 1 1 0 0
576 1 14.27073 1 2 5 4 0 0 0
577 1 15.3984022 0 3 6 4 0 0 0
578 1 14.5957155 0 3 6 4 0 0 0
579 1 14.3480158 0 3 6 4 0 0 0
580 1 16.9700128 1 3 5 3 2 0 0
581 1 13.9036732 0 0 12 0 0 0 0
582 1 15.0383511 1 2 5 5 0 0 0
583 1 14.3597899 0 2 8 1 0 0 0
584 1 14.7999649 0 1 10 2 0 0 0
585 1 14.7942152 0 3 6 4 0 0 0
586 1 13.9203596 0 0 12 0 0 0 0
587 1 14.0886612 0 0 12 0 0 0 0
588 1 14.522687 0 0 12 0 0 0 0
589 1 16.6565266 0 3 6 4 0 0 0
590 1 15.0654163 0 3 6 4 0 0 0
591 1 15.1811514 0 3 6 2 0 0 0
592 1 13.8345661 0 1 10 3 0 0 0
593 1 14.7844248 0 2 8 2 0 0 0
594 1 15.0020723 0 3 6 4 0 0 0
595 1 15.0353155 0 3 6 3 0 0 0
596 1 13.9484712 0 1 10 2 0 0 0
597 1 14.6713047 1 2 6 2 1 0 0
598 1 18.1639843 0 1 10 2 0 0 0
599 1 15.2195931 0 3 7 2 1 0 0
600 1 12.8420734 0 2 8 2 0 0 0
601 1 16.3028336 1 1 8 1 1 0 0
602 1 14.2574654 1 3 4 5 1 0 0
603 1 15.0883989 0 2 8 1 0 0 0
604 1 15.99926 0 2 8 2 0 0 0
605 1 15.2456026 0 1 10 3 0 0 0
606 1 16.2503529 0 1 10 2 0 0 0
607 1 13.9707346 2 2 4 4 0 1 0
608 1 14.876381 0 3 6 4 0 0 0
609 1 15.4577427 0 2 9 2 1 0 0
610 1 15.1072741 1 2 6 2 1 0 0
611 1 14.6467819 1 1 8 3 1 0 0
612 1 15.1066485 0 3 6 4 0 0 0
613 1 15.629015 1 2 6 3 1 0 0
614 1 13.371131 0 0 12 0 0 0 0
615 1 13.8699856 0 4 4 4 0 0 0
616 1 14.7751503 0 1 10 3 0 0 0
617 1 15.5703898 0 3 6 3 0 0 0
618 1 15.4678545 0 0 12 0 0 0 0
619 1 16.1948795 1 2 5 4 0 0 0
620 1 17.0486984 1 4 3 5 2 0 0
621 1 14.8471136 0 1 10 2 0 0 0
622 1 15.1825266 0 2 8 2 0 0 0
623 1 15.756321 1 2 6 3 1 0 0
624 1 16.3540421 1 3 4 4 1 0 0
625 1 17.4704628 0 2 8 2 0 0 0
626 1 14.5126667 0 2 8 1 0 0 0
627 1 14.8786584 0 3 6 4 0 0 0
628 1 13.95185 0 2 8 2 0 0 0
629 1 12.8743544 0 2 8 0 0 0 0
630 1 15.6753464 0 2 8 2 0 0 0
631 1 16.1938763 2 3 3 5 3 0 0
632 1 15.7585526 0 1 10 2 0 0 0
633 1 13.7512646 0 2 8 1 0 0 0
634 1 15.1931267 0 3 6 4 0 0 0
635 1 16.2352543 0 4 4 6 0 0 0
636 1 14.4536629 0 2 8 3 0 0 0
637 1 14.9105826 0 3 6 3 0 0 0
638 1 13.9039842 0 0 12 0 0 0 0
639 1 14.1608963 0 1 10 2 0 0 0
640 1 15.1247215 1 3 3 5 0 0 0
641 1 15.0012131 0 2 8 2 0 0 0
642 1 14.2224846 0 1 10 2 0 0 0
643 1 13.6775732 0 0 12 0 0 0 0
644 1 16.937975 0 3 6 5 0 0 0
645 1 17.9695054 1 4 3 4 2 0 0
646 1 14.7387247 0 4 4 5 0 0 0
647 1 16.7289315 0 1 10 2 0 0 0
648 1 14.9527026 0 2 8 2 0 0 0
649 1 13.8971644 0 0 12 0 0 0 0
650 1 15.1443167 0 0 12 0 0 0 0
651 1 12.9952812 0 1 10 2 0 0 0
652 1 15.4572439 0 2 8 2 0 0 0
653 1 16.1351147 0 3 6 5 0 0 0
654 1 14.2374649 1 2 6 3 1 0 0
655 1 15.0175447 0 2 8 2 0 0 0
656 1 14.7952318 0 1 10 3 0 0 0
657 1 14.0171127 0 0 12 0 0 0 0
658 1 14.3560515 0 1 10 2 0 0 0
659 1 16.0194397 0 2 8 2 0 0 0
660 1 17.388113 0 4 5 4 1 0 0
661 1 15.2289381 0 2 8 1 0 0 0
662 1 14.8227654 0 3 7 4 1 0 0
663 1 15.6403351 0 2 8 2 0 0 0
664 1 13.8055992 0 2 8 4 0 0 0
665 1 17.6639672 1 3 5 5 2 0 0
666 1 14.6168843 0 2 8 2 0 0 0
667 1 13.0782537 0 3 6 4 0 0 0
668 1 15.6723099 0 0 12 0 0 0 0
669 1 15.0291233 0 2 8 2 0 0 0
670 1 14.5248795 0 3 6 4 0 0 0
671 1 14.8972254 0 0 12 0 0 0 0
672 1 16.3119431 2 2 3 5 1 0 0
673 1 14.1355543 0 3 6 5 0 0 0
674 1 16.163578 0 2 8 4 0 0 0
675 1 14.3353968 0 1 10 2 0 0 0
676 1 15.6931401 1 2 5 4 0 0 0
677 1 14.5003309 0 0 12 0 0 0 0
678 1 14.5302525 1 2 5 4 0 0 0
679 1 15.4586754 0 2 8 4 0 0 0
680 1 15.5756655 0 3 6 4 0 0 0
681 1 14.6367541 0 1 10 2 0 0 0
682 1 13.3379698 1 0 9 3 0 0 0
683 1 15.8388586 0 3 6 3 0 0 0
684 1 14.0368557 0 4 4 4 0 0 0
685 1 17.4495487 0 3 6 4 0 0 0
686 1 15.1136589 0 1 10 2 0 0 0
687 1 14.7079802 0 0 12 0 0 0 0
688 1 14.6899491 0 1 10 2 0 0 0
689 1 14.0488062 0 1 10 2 0 0 0
690 1 15.0440655 0 2 8 2 0 0 0
691 1 13.7566281 0 0 12 0 0 0 0
692 1 15.408556 0 4 4 4 0 0 0
693 1 17.8380604 1 0 9 3 0 0 0
694 1 15.4229813 0 1 10 2 0 0 0
695 1 14.8123684 0 4 4 6 0 0 0
696 1 14.841653 0 0 12 2 0 0 0
697 1 13.841383 0 2 8 2 0 0 0
698 1 14.1720295 0 0 12 0 0 0 0
699 1 13.4326945 0 0 12 0 0 0 0
700 1 13.7975579 0 4 5 4 1 0 0
701 1 13.338932 0 0 12 0 0 0 0
702 1 16.5506993 2 2 5 2 3 0 0
703 1 18.3552666 0 0 12 0 0 0 0
704 1 15.143527 0 1 10 2 0 0 0
705 1 14.1046639 0 2 8 2 0 0 0
706 1 14.6458035 0 0 12 0 0 0 0
707 1 17.3256073 0 3 6 4 0 0 0
708 1 15.0035734 0 1 10 2 0 0 0
709 1 15.3011074 0 2 8 2 0 0 0
710 1 13.855916 1 0 9 3 0 0 0
711 1 14.4412165 0 0 12 0 0 0 0
712 1 14.0531302 0 1 10 3 0 0 0
713 1 16.8718166 2 4 2 3 4 0 0
714 1 16.7940007 0 3 6 5 0 0 0
715 1 14.7460938 0 3 6 4 0 0 0
716 1 16.229866 0 1 10 2 0 0 0
717 1 15.9474964 0 2 8 2 0 0 0
718 1 14.7029677 0 0 12 0 0 0 0
719 1 15.0739203 1 3 4 5 1 0 0
720 1 15.6789398 2 0 7 4 1 0 0
721 1 15.6590777 0 1 10 2 0 0 0
722 1 15.3419571 0 1 10 2 0 0 0
723 1 14.5093022 0 2 8 2 0 0 0
724 1 15.8390142 0 2 8 2 0 0 0
725 1 14.2721357 0 0 12 0 0 0 0
726 1 17.9853344 3 2 2 4 3 0 0
727 1 14.1828222 0 1 10 2 0 0 0
728 1 12.7511044 0 0 12 0 0 0 0
729 1 14.818101 1 5 2 5 1 1 0
730 1 14.3188753 1 0 9 3 0 0 0
731 1 13.7850218 0 0 12 0 0 0 0
732 1 14.8655252 1 2 5 5 0 0 0
733 1 14.7702704 0 0 12 0 0 0 0
734 1 16.1918087 0 1 10 4 0 0 0
735 1 14.1956225 0 2 8 2 0 0 0
736 1 15.024291 0 3 6 4 0 0 0
737 1 14.9643526 1 1 9 0 2 0 0
738 1 14.482153 1 2 5 4 0 0 0
739 1 13.893961 1 2 6 2 1 0 0
740 1 16.0209522 0 2 8 2 0 0 0
741 1 13.7421875 0 0 12 0 0 0 0
742 1 16.429966 0 2 8 3 0 0 0
743 1 17.519392 1 3 4 6 1 0 0
744 1 14.6164274 0 0 12 0 0 0 0
745 1 13.5659724 0 0 12 0 0 0 0
746 1 17.511549 0 3 6 5 0 0 0
747 1 18.3561669 0 3 7 2 1 0 0
748 1 15.1045132 0 0 12 0 0 0 0
749 1 14.3676787 0 1 10 2 0 0 0
750 1 15.3294211 0 0 12 0 0 0 0
751 1 15.831913 0 4 4 4 0 0 0
752 1 13.9341984 0 0 12 0 0 0 0
753 1 15.089303 0 1 10 2 0 0 0
754 1 17.0386715 1 3 3 4 0 0 0
755 1 14.3089333 0 3 6 4 0 0 0
756 1 15.8832208 0 2 8 2 0 0 0
757 1 14.3757534 0 1 10 2 0 0 0
758 1 14.8000241 0 2 8 2 0 0 0
759 1 14.6152497 1 2 6 3 1 0 0
760 1 15.4457522 1 1 9 0 2 0 0
761 1 14.5028153 0 3 6 4 0 0 0
762 1 17.1622715 0 4 4 3 0 0 0
763 1 15.2511282 1 2 7 2 2 0 0
764 1 15.8559914 0 3 6 5 0 0 0
765 1 14.9293452 0 1 10 2 0 0 0
766 1 13.85497 0 0 12 0 0 0 0
767 1 14.8248339 0 0 12 0 0 0 0
768 1 15.5163574 0 0 12 0 0 0 0
769 1 16.3098469 0 3 6 4 0 0 0
770 1 12.9547482 1 2 5 4 0 0 0
771 1 13.7584076 0 0 12 0 0 0 0
772 1 13.952736 0 0 12 0 0 0 0
773 1 14.4527836 0 2 8 2 0 0 0
774 1 14.8180628 0 3 7 4 1 0 0
775 1 14.9729844 0 2 8 3 0 0 0
776 1 14.8428842 0 4 4 3 0 0 0
777 1 14.9294624 0 1 10 2 0 0 0
778 1 15.1199579 1 3 5 4 2 0 0
779 1 14.7132845 0 2 8 2 0 0 0
780 1 14.8238755 0 3 6 3 0 0 0
781 1 16.6334629 1 2 6 3 1 0 0
782 1 16.2983303 1 2 6 3 1 0 0
783 1 14.3408098 0 0 12 0 0 0 0
784 1 14.0704575 1 2 5 3 0 0 0
785 1 15.2696257 0 1 10 2 0 0 0
786 1 13.0665445 0 0 12 0 0 0 0
787 1 15.3614378 1 0 10 3 1 0 0
788 1 14.0404539 0 0 12 0 0 0 0
789 1 15.4314842 0 2 8 4 0 0 0
790 1 15.4398756 0 2 8 2 0 0 0
791 1 12.0488501 0 2 8 1 0 0 0
792 1 13.8031311 0 0 12 0 0 0 0
793 1 14.5021162 0 0 12 0 0 0 0
794 1 16.0159874 0 2 8 4 0 0 0
795 1 15.2650375 0 2 8 3 0 0 0
796 1 13.8337651 0 0 12 0 0 0 0
797 1 12.6742335 0 0 12 0 0 0 0
798 1 15.8068505 0 1 10 2 0 0 0
799 1 14.9350786 0 2 8 2 0 0 0
800 1 14.8285675 0 3 6 3 0 0 0
801 1 18.087307 0 3 6 6 0 0 0
802 1 15.7114516 0 4 4 6 0 0 0
803 1 15.7634592 0 4 4 3 0 0 0
804 1 15.1820974 2 2 4 4 0 1 0
805 1 14.9153566 0 3 6 5 0 0 0
806 1 15.4113722 0 2 8 2 0 0 0
807 1 16.1513844 1 1 9 2 2 0 0
808 1 15.538209 1 1 8 1 1 0 0
809 1 13.522502 0 0 12 0 0 0 0
810 1 13.8660326 0 3 7 3 1 0 0
811 1 16.2238693 1 3 5 3 2 0 0
812 1 15.4698754 0 0 12 0 0 0 0
813 1 14.7131014 0 0 12 0 0 0 0
814 1 16.251442 2 2 4 4 2 0 0
815 1 13.7065039 0 3 6 5 0 0 0
816 1 13.3614998 0 2 8 0 0 0 0
817 1 14.859189 0 2 8 1 0 0 0
818 1 13.6448508 0 0 12 0 0 0 0
819 1 15.0121717 0 0 12 0 0 0 0
820 1 15.1527605 0 0 12 0 0 0 0
821 1 15.200244 0 2 8 4 0 0 0
822 1 13.6378193 0 0 12 0 0 0 0
823 1 13.5732441 0 0 12 0 0 0 0
824 1 14.1515236 0 1 10 2 0 0 0
825 1 13.4231539 0 0 12 0 0 0 0
826 1 15.63198 0 1 10 2 0 0 0
827 1 13.2399597 0 1 10 2 0 0 0
828 1 17.1022911 0 5 3 5 1 0 0
829 1 14.8799764 0 3 6 2 0 0 0
830 1 13.9168168 0 0 12 0 0 0 0
831 1 15.613534 0 0 12 0 0 0 0
832 1 15.9998198 0 2 8 2 0 0 0
833 1 15.9414062 0 3 6 4 0 0 0
834 1 13.861456 0 3 6 4 0 0 0
835 1 15.9220476 0 1 10 2 0 0 0
836 1 14.0507374 0 0 12 0 0 0 0
837 1 16.0230522 0 4 4 6 0 0 0
838 1 15.4836235 0 2 8 2 0 0 0
839 1 14.242281 0 5 3 4 1 0 0
840 1 16.4527664 0 1 10 2 0 0 0
841 1 17.0911961 0 1 10 3 0 0 0
842 1 16.8757286 3 2 4 1 3 1 0
843 1 12.9691554 0 2 8 2 0 0 0
844 1 13.9334222 0 3 6 5 0 0 0
845 1 16.2203789 0 2 8 1 0 0 0
846 1 14.660882 0 0 12 0 0 0 0
847 1 15.3525334 1 1 8 3 1 0 0
848 1 15.6752959 0 2 8 3 0 0 0
849 1 13.6402254 0 0 12 0 0 0 0
850 1 15.981578 0 0 12 0 0 0 0
851 1 16.2089996 0 3 6 4 0 0 0
852 1 16.1252289 0 1 10 2 0 0 0
853 1 14.9338828 0 3 6 4 0 0 0
854 1 14.3914461 0 2 8 2 0 0 0
855 1 13.867341 1 2 5 4 0 0 0
856 1 13.9550142 0 1 10 2 0 0 0
857 1 16.1529007 0 3 8 2 2 0 0
858 1 15.036438 0 0 12 0 0 0 0
859 1 13.8556852 0 0 12 0 0 0 0
860 1 15.971098 0 1 10 2 0 0 0
861 1 13.7606926 0 4 4 6 0 0 0
862 1 15.2574415 0 3 6 4 0 0 0
863 1 16.8106404 1 1 9 2 2 0 0
864 1 14.1601563 0 1 10 2 0 0 0
865 1 15.5334959 0 1 10 2 0 0 0
866 1 16.4690743 1 2 5 5 0 0 0
867 1 15.2558508 0 1 10 3 0 0 0
868 1 14.65164 1 0 9 3 0 0 0
869 1 17.0991554 1 2 6 3 1 0 0
870 1 16.3004952 0 2 8 5 0 0 0
871 1 14.2472239 0 0 12 0 0 0 0
872 1 14.932685 0 2 8 4 0 0 0
873 1 14.9823562 0 4 5 4 1 0 0
874 1 14.3303547 0 3 6 4 0 0 0
875 1 14.4077101 1 0 9 3 0 0 0
876 1 17.432066 0 4 4 5 0 0 0
877 1 14.0266304 1 2 6 3 1 0 0
878 1 14.0862417 0 0 12 0 0 0 0
879 1 14.0126534 0 1 10 2 0 0 0
880 1 15.0691395 0 1 10 2 0 0 0
881 1 15.1110096 0 1 10 2 0 0 0
882 1 15.2560206 0 1 10 2 0 0 0
883 1 15.6502943 0 4 5 4 1 0 0
884 1 15.8516818 0 1 10 2 0 0 0
885 1 13.438016 0 3 6 4 0 0 0
886 1 14.1512699 1 2 6 4 1 0 0
887 1 14.1699886 0 1 10 2 0 0 0
888 1 14.9321356 0 1 10 2 0 0 0
889 1 15.3365412 2 1 6 2 2 0 0
890 1 15.0310879 0 0 12 0 0 0 0
891 1 13.6154289 0 3 6 3 0 0 0
892 1 13.3195753 0 2 8 1 0 0 0
893 1 14.5317707 2 1 7 1 1 1 0
894 1 16.1508541 0 2 8 3 0 0 0
895 1 16.3892899 0 3 6 5 0 0 0
896 1 14.6436653 0 2 8 2 0 0 0
897 1 16.4546356 0 4 4 3 0 0 0
898 1 15.7121802 0 1 10 2 0 0 0
899 1 13.9121456 0 1 10 2 0 0 0
900 1 13.9555894 0 2 8 2 0 0 0
901 1 16.1797314 1 3 3 6 0 0 0
902 1 14.2422066 0 0 12 0 0 0 0
903 1 16.4944058 0 3 6 4 0 0 0
904 1 14.6753035 0 2 8 2 0 0 0
905 1 15.2068205 0 4 4 6 0 0 0
906 1 14.2105971 1 4 3 5 0 1 0
907 1 16.2946568 0 3 6 3 0 0 0
908 1 14.5227185 0 2 8 2 0 0 0
909 1 14.9278298 2 3 3 3 3 0 0
910 1 16.5090428 0 3 6 5 0 0 0
911 1 15.1812458 0 2 8 2 0 0 0
912 1 14.5978956 0 2 8 4 0 0 0
913 1 14.946662 0 2 8 2 0 0 0
914 1 12.9930316 0 0 12 0 0 0 0
915 1 14.1921568 0 4 4 4 0 0 0
916 1 14.6082077 0 2 8 2 0 0 0
917 1 15.6766529 0 3 6 4 0 0 0
918 1 14.6679249 0 0 12 0 0 0 0
919 1 14.6968518 0 2 8 4 0 0 0
920 1 14.6397162 0 0 12 0 0 0 0
921 1 14.0393524 0 3 6 4 0 0 0
922 1 15.9053784 0 3 6 4 0 0 0
923 1 16.2852249 1 2 6 2 1 0 0
924 1 14.9615308 0 2 8 2 0 0 0
925 1 14.013237 0 2 8 2 0 0 0
926 1 14.3985338 0 0 12 0 0 0 0
927 1 14.7142048 0 4 4 6 0 0 0
928 1 14.0089407 0 0 12 0 0 0 0
929 1 13.7558165 0 0 12 0 0 0 0
930 1 14.7170668 0 3 6 4 0 0 0
931 1 13.0250845 0 0 12 0 0 0 0
932 1 15.9281712 1 0 9 3 0 0 0
933 1 15.7844019 1 3 4 5 1 0 0
934 1 16.1528549 0 2 8 1 0 0 0
935 1 15.4684887 0 2 8 1 0 0 0
936 1 15.956605 0 2 8 4 0 0 0
937 1 14.4251299 0 2 8 4 0 0 0
938 1 15.6862345 1 4 2 7 1 0 0
939 1 16.8168736 2 2 4 3 2 0 0
940 1 13.0165911 0 0 12 0 0 0 0
941 1 15.2723665 1 2 6 5 1 0 0
942 1 12.7219467 0 0 12 0 0 0 0
943 1 17.5151997 2 2 3 5 1 0 0
944 1 15.7513485 1 2 6 3 1 0 0
945 1 15.6582213 1 2 7 2 2 0 0
946 1 14.526886 0 1 10 2 0 0 0
947 1 15.4726286 0 1 10 2 0 0 0
948 1 15.1597633 0 2 8 2 0 0 0
949 1 14.4930887 0 1 10 2 0 0 0
950 1 14.7188025 0 0 12 0 0 0 0
951 1 14.8412476 0 1 10 3 0 0 0
952 1 15.9816142 1 2 6 3 1 0 0
953 1 15.6755352 0 1 10 2 0 0 0
954 1 16.2314034 0 2 8 3 0 0 0
955 1 14.9799386 1 4 2 4 1 0 0