ITEM: TIMESTEP
0
ITEM: NUMBER OF ATOMS
2000
ITEM: BOX BOUNDS pp pp pp
0.299875 32.1301231
0.299875 32.1301231
0.299875 32.1301231
ITEM: ATOMS id type AtomicVolume VoronoiIndex3 VoronoiIndex4 VoronoiIndex5 VoronoiIndex6 VoronoiIndex7 VoronoiIndex8 VoronoiIndex9
1 1 17.1767788 0 2 8 4 0 0 0
2 1 13.7224674 1 0 9 3 0 0 0
3 1 14.0774679 0 0 12 0 0 0 0
4 1 16.7619686 0 2 8 1 0 0 0
5 1 15.0510521 0 1 10 2 0 0 0
6 1 15.7386341 0 5 3 5 1 0 0
7 1 15.9324474 0 4 5 4 1 0 0
8 1 14.5440541 0 0 12 0 0 0 0
9 1 14.9136458 1 2 7 2 2 0 0
10 1 16.0959377 0 1 10 2 0 0 0
11 1 14.9557382 1 2 5 4 0 0 0
12 1 14.359561 0 0 12 0 0 0 0
13 1 15.0919743 0 2 8 4 0 0 0
14 1 16.9253006 0 3 6 3 0 0 0
15 1 15.1220789 1 0 9 3 0 0 0
16 1 13.9993812 0 0 12 0 0 0 0
17 1 15.3346224 2 0 8 2 2 0 0
18 1 14.6320458 0 1 10 2 0 0 0
19 1 14.4222403 0 0 12 0 0 0 0
20 1 14.7757054 0 3 6 3 0 0 0
21 1 13.5400963 2 0 8 2 2 0 0
22 1 15.1845121 0 3 6 4 0 0 0
23 1 15.0318537 0 3 6 3 0 0 0
24 1 13.5733891 0 0 12 0 0 0 0
25 1 15.971921 1 2 6 3 1 0 0
26 1 14.86409 0 1 10 2 0 0 0
27 1 14.7147846 3 2 1 4 2 0 0
28 1 16.7264309 1 2 6 4 1 0 0
29 1 16.7680893 0 1 10 2 0 0 0
30 1 15.3680639 1 2 5 4 0 0 0
31 1 15.0838585 1 2 5 4 0 0 0
32 1 14.7109843 0 0 12 0 0 0 0
33 1 15.2793398 0 2 8 4 0 0 0
34 1 15.575676 0 2 8 4 0 0 0
35 1 13.1182165 0 3 6 4 0 0 0
36 1 14.4304657 0 3 6 4 0 0 0
37 1 13.3623324 0 2 8 3 0 0 0
38 1 15.1455317 0 2 8 2 0 0 0
39 1 15.8092833 1 1 8 3 1 0 0
40 1 14.7411537 0 1 10 2 0 0 0
41 1 15.71525 0 2 8 4 0 0 0
42 1 16.4976654 1 0 9 3 0 0 0
43 1 13.5383702 0 0 12 0 0 0 0
44 1 15.0039825 0 3 6 4 0 0 0
45 1 13.0334873 0 1 10 2 0 0 0
46 1 13.6073561 1 2 6 3 1 0 0
47 1 13.1994715 0 3 6 2 0 0 0
48 1 16.2920761 0 2 8 4 0 0 0
49 1 14.05056 0 1 10 2 0 0 0
50 1 13.4726534 0 0 12 0 0 0 0
51 1 15.3692293 1 3 4 3 1 0 0
52 1 16.2933636 0 0 12 0 0 0 0
53 1 14.3019791 0 2 8 2 0 0 0
54 1 14.0787668 1 2 6 3 1 0 0
55 1 15.3869305 0 0 12 0 0 0 0
56 1 14.7924567 1 1 7 5 0 0 0
57 1 16.5614472 1 3 5 2 2 0 0
58 1 14.1706572 0 2 8 2 0 0 0
59 1 17.3338966 1 2 5 5 0 0 0
60 1 13.9280338 1 0 9 3 0 0 0
61 1 15.6970358 0 3 6 4 0 0 0
62 1 14.2082825 0 1 10 2 0 0 0
63 1 14.1409092 0 1 10 2 0 0 0
64 1 15.0476627 0 3 6 3 0 0 0
65 1 15.5852423 0 3 6 4 0 0 0
66 1 14.6833792 0 0 12 0 0 0 0
67 1 15.3709507 0 0 12 0 0 0 0
68 1 14.3865099 1 3 3 5 0 0 0
69 1 12.9729986 0 2 8 1 0 0 0
70 1 14.5061693 0 1 10 2 0 0 0
71 1 13.6150551 0 2 8 1 0 0 0
72 1 13.1326971 0 0 12 0 0 0 0
73 1 14.0887756 0 0 12 0 0 0 0
74 1 14.329813 1 1 7 2 0 0 0
75 1 15.9956714 0 1 10 2 0 0 0
76 1 14.354085 0 4 4 6 0 0 0
77 1 15.3441668 1 1 8 3 1 0 0
78 1 15.8540974 0 1 10 2 0 0 0
79 1 15.073431 0 2 8 2 0 0 0
80 1 14.8102379 0 2 8 2 0 0 0
81 1 14.941866 0 0 12 0 0 0 0
82 1 16.0676136 1 3 4 5 1 0 0
83 1 16.4085693 0 3 6 5 0 0 0
84 1 14.3687725 0 2 8 2 0 0 0
85 1 13.959261 0 2 8 2 0 0 0
86 1 14.0291119 0 1 10 2 0 0 0
87 1 14.7432232 0 0 12 0 0 0 0
88 1 16.0637035 0 3 6 4 0 0 0
89 1 14.128665 0 2 8 2 0 0 0
90 1 16.3363285 0 2 8 2 0 0 0
91 1 15.384306 0 1 10 2 0 0 0
92 1 12.8849812 1 2 6 2 1 0 0
93 1 15.7334461 0 2 8 2 0 0 0
94 1 12.9516268 0 0 12 0 0 0 0
95 1 15.0000372 0 2 8 4 0 0 0
96 1 13.6218586 0 0 12 0 0 0 0
97 1 16.2162342 1 2 7 2 2 0 0
98 1 15.5949574 0 1 10 2 0 0 0
99 1 14.0439138 0 2 8 4 0 0 0
100 1 16.4266835 0 2 8 3 0 0 0
101 1 14.0468588 0 2 8 2 0 0 0
102 1 14.4606819 0 0 12 0 0 0 0
103 1 16.260458 0 3 6 4 0 0 0
104 1 12.9234686 0 2 8 2 0 0 0
105 1 13.5085039 0 0 12 0 0 0 0
106 1 13.5426264 0 4 4 6 0 0 0
107 1 13.9162388 0 0 12 0 0 0 0
108 1 15.2755442 0 2 8 4 0 0 0
109 1 13.2450304 0 0 12 0 0 0 0
110 1 15.2441673 1 2 7 2 2 0 0
111 1 15.2751885 0 3 6 2 0 0 0
112 1 15.3568421 1 3 4 5 1 0 0
113 1 15.5301161 0 1 10 2 0 0 0
114 1 16.8668346 0 4 4 5 0 0 0
115 1 14.4018297 0 1 10 3 0 0 0
116 1 14.9506112 0 2 8 3 0 0 0
117 1 15.1071692 0 1 10 2 0 0 0
118 1 14.0653734 0 2 8 4 0 0 0
119 1 13.3710528 0 0 12 0 0 0 0
120 1 13.4574738 0 1 10 2 0 0 0
121 1 14.2920885 0 1 10 2 0 0 0
122 1 14.7006321 0 2 8 2 0 0 0
123 1 14.6200485 0 1 10 2 0 0 0
124 1 15.079833 0 0 12 0 0 0 0
125 1 14.3241167 0 1 10 2 0 0 0
126 1 16.2052002 1 2 6 3 1 0 0
127 1 15.6325178 1 2 6 3 1 0 0
128 1 14.9448338 0 3 6 4 0 0 0
129 1 15.0005407 0 1 10 2 0 0 0
130 1 15.4394417 1 0 9 3 0 0 0
131 1 14.4937668 0 2 8 4 0 0 0
132 1 16.3332157 0 2 8 2 0 0 0
133 1 13.2813225 0 0 12 0 0 0 0
134 1 15.3830996 0 4 5 3 1 0 0
135 1 18.3630219 3 2 3 3 2 1 0
136 1 15.5290537 0 1 10 2 0 0 0
137 1 16.6580239 0 4 4 7 0 0 0
138 1 14.3121758 0 0 12 0 0 0 0
139 1 14.4669295 0 2 8 1 0 0 0
140 1 15.0668011 0 2 8 1 0 0 0
141 1 16.6319618 0 2 8 6 0 0 0
142 1 14.1906061 0 0 12 0 0 0 0
143 1 14.7189455 0 0 12 0 0 0 0
144 1 13.5447407 0 0 12 0 0 0 0
145 1 14.131176 1 2 6 2 1 0 0
146 1 15.3579435 0 1 10 3 0 0 0
147 1 13.5210562 0 4 5 4 1 0 0
148 1 15.6548271 0 3 6 3 0 0 0
149 1 14.5427103 0 1 10 2 0 0 0
150 1 13.8807478 0 0 12 0 0 0 0
151 1 15.6964073 0 1 10 2 0 0 0
152 1 15.9259892 0 4 5 4 1 0 0
153 1 14.9883872 0 4 4 6 0 0 0
154 1 13.9440318 0 1 10 2 0 0 0
155 1 15.7913018 0 1 10 2 0 0 0
156 1 15.8927536 0 1 10 2 0 0 0
157 1 14.1660633 0 0 12 0 0 0 0
158 1 15.7318001 1 2 6 3 1 0 0
159 1 13.1110745 0 2 8 2 0 0 0
160 1 14.3374138 0 1 10 2 0 0 0
161 1 15.0055218 1 4 3 2 2 0 0
162 1 13.4206467 0 1 10 2 0 0 0
163 1 16.3398457 0 1 10 3 0 0 0
164 1 13.7576695 0 0 12 0 0 0 0
165 1 15.9301368 1 2 6 5 1 0 0
166 1 13.5152436 0 0 12 0 0 0 0
167 1 13.9964152 0 0 12 0 0 0 0
168 1 15.2773247 0 0 12 0 0 0 0
169 1 15.1798306 1 3 4 5 1 0 0
170 1 14.9740726 0 0 12 0 0 0 0
171 1 16.4083672 0 4 4 5 0 0 0
172 1 15.5123673 2 0 8 2 2 0 0
173 1 16.2101059 0 5 3 5 1 0 0
174 1 13.4723292 0 1 10 2 0 0 0
175 1 15.3775673 0 2 8 2 0 0 0
176 1 16.3684292 0 3 6 4 0 0 0
177 1 15.5479641 0 2 8 2 0 0 0
178 1 14.6311407 0 0 12 0 0 0 0
179 1 16.2822609 0 1 10 2 0 0 0
180 1 14.6421652 1 2 6 1 1 0 0
181 1 14.4509697 0 1 10 3 0 0 0
182 1 15.226491 0 1 10 2 0 0 0
183 1 15.3092861 0 3 6 3 0 0 0
184 1 13.7341576 1 0 9 3 0 0 0
185 1 15.448555 0 0 12 0 0 0 0
186 1 14.1861086 0 1 10 2 0 0 0
187 1 15.1066284 0 1 10 2 0 0 0
188 1 15.3035708 0 3 6 4 0 0 0
189 1 13.3533182 0 0 12 0 0 0 0
190 1 13.623169 0 0 12 0 0 0 0
191 1 16.4275894 0 2 8 2 0 0 0
192 1 15.9649858 1 1 8 3 1 0 0
193 1 16.2460709 1 3 3 5 0 0 0
194 1 14.5628577 0 1 10 2 0 0 0
195 1 15.323267 0 2 8 2 0 0 0
196 1 13.4798317 0 1 10 2 0 0 0
197 1 14.9614792 0 0 12 0 0 0 0
198 1 14.8562536 0 0 12 0 0 0 0
199 1 16.588049 0 1 10 2 0 0 0
200 1 13.8026009 0 1 10 2 0 0 0
201 1 14.0508661 0 0 12 0 0 0 0
202 1 13.7696133 0 1 10 2 0 0 0
203 1 15.44277 0 1 10 2 0 0 0
204 1 15.2030573 0 1 10 2 0 0 0
205 1 17.5638275 0 2 8 4 0 0 0
206 1 14.5140457 0 3 7 2 1 0 0
207 1 17.7663803 0 4 4 7 0 0 0
208 1 15.4561405 0 0 12 0 0 0 0
209 1 14.892395 0 0 12 0 0 0 0
210 1 14.7861061 1 0 9 3 0 0 0
211 1 14.8210869 0 3 6 4 0 0 0
212 1 15.1341562 1 2 6 2 1 0 0
213 1 14.0030947 0 0 12 0 0 0 0
214 1 14.7694903 0 0 12 0 0 0 0
215 1 13.8614884 0 0 12 0 0 0 0
216 1 16.1173592 0 2 8 2 0 0 0
217 1 15.5404129 1 0 9 3 0 0 0
218 1 14.3547363 0 2 8 1 0 0 0
219 1 14.6285849 0 2 8 2 0 0 0
220 1 14.2919617 0 4 4 5 0 0 0
221 1 15.1760206 0 2 8 2 0 0 0
222 1 14.2971087 0 0 12 0 0 0 0
223 1 14.1913595 0 0 12 0 0 0 0
224 1 16.0415783 0 3 6 4 0 0 0
225 1 16.8011551 1 2 6 4 1 0 0
226 1 14.0526953 0 0 12 0 0 0 0
227 1 15.3254986 0 0 12 0 0 0 0
228 1 14.3502083 0 2 8 2 0 0 0
229 1 15.836196 0 3 6 4 0 0 0
230 1 14.1807661 1 2 5 4 0 0 0
231 1 14.2918282 0 2 8 3 0 0 0
232 1 12.8630314 0 1 10 2 0 0 0
233 1 15.9029256 0 3 6 5 0 0 0
234 1 14.5825892 0 2 8 2 0 0 0
235 1 15.6383658 0 1 10 2 0 0 0
236 1 14.5652151 1 3 5 2 2 0 0
237 1 14.7854748 2 1 7 2 1 1 0
238 1 14.4575815 0 1 10 2 0 0 0
239 1 16.1078167 1 3 4 3 1 0 0
240 1 17.4758587 0 3 6 5 0 0 0
241 1 13.8552018 0 0 12 0 0 0 0
242 1 16.8449898 0 1 10 3 0 0 0
243 1 15.9122124 0 4 4 6 0 0 0
244 1 15.3778105 0 2 8 2 0 0 0
245 1 16.3786011 1 1 8 1 1 0 0
246 1 14.4673701 0 0 12 0 0 0 0
247 1 13.7916422 0 0 12 0 0 0 0
248 1 15.3614922 0 2 8 1 0 0 0
249 1 14.1207933 0 2 8 2 0 0 0
250 1 13.6802311 0 1 10 2 0 0 0
251 1 15.8058367 0 3 6 3 0 0 0
252 1 15.1500616 0 0 12 0 0 0 0
253 1 14.8231774 0 0 12 0 0 0 0
254 1 15.5742226 0 1 10 2 0 0 0
255 1 14.909897 0 2 8 1 0 0 0
256 1 14.3435545 0 3 6 4 0 0 0
257 1 17.2350598 2 2 2 6 0 0 0
258 1 15.7963124 0 0 12 0 0 0 0
259 1 15.3426561 1 1 9 2 2 0 0
260 1 16.2014484 0 3 6 4 0 0 0
261 1 13.4046774 0 2 8 1 0 0 0
262 1 16.1657105 3 1 5 2 4 0 0
263 1 14.747221 0 1 10 2 0 0 0
264 1 16.6237107 0 0 12 0 0 0 0
265 1 14.0518169 0 0 12 0 0 0 0
266 1 14.5989151 0 2 8 1 0 0 0
267 1 15.6198168 0 0 12 2 0 0 0
268 1 14.7367888 0 2 8 3 0 0 0
269 1 16.5246239 0 3 7 4 1 0 0
270 1 15.9434234 1 3 4 4 1 0 0
271 1 15.8799324 0 3 6 4 0 0 0
272 1 14.1979542 0 0 12 0 0 0 0
273 1 15.8483382 0 4 4 4 0 0 0
274 1 14.9719068 0 0 12 0 0 0 0
275 1 13.2305355 0 2 8 1 0 0 0
276 1 17.5366574 0 4 4 6 0 0 0
277 1 14.8091383 0 2 8 2 0 0 0
278 1 14.8020916 0 3 6 4 0 0 0
279 1 14.653944 0 0 12 0 0 0 0
280 1 14.9407226 0 3 6 3 0 0 0
281 1 14.7663412 0 3 6 2 0 0 0
282 1 13.7507801 0 1 10 2 0 0 0
283 1 15.8468838 1 1 8 3 1 0 0
284 1 15.8548956 0 0 12 0 0 0 0
285 1 15.0282373 0 2 8 2 0 0 0
286 1 16.1122093 0 2 8 3 0 0 0
287 1 12.9032974 0 1 10 2 0 0 0
288 1 12.7764654 0 0 12 0 0 0 0
289 1 16.1851254 2 2 4 5 0 1 0
290 1 16.916172 1 3 4 3 1 0 0
291 1 15.6830807 0 3 6 4 0 0 0
292 1 13.5229264 0 1 10 2 0 0 0
293 1 13.8610296 1 2 5 4 0 0 0
294 1 12.3832159 0 0 12 0 0 0 0
295 1 15.7486534 0 4 4 4 0 0 0
296 1 17.0343685 1 2 7 2 2 0 0
297 1 18.3802948 0 2 8 4 0 0 0
298 1 15.0623236 1 1 8 1 1 0 0
299 1 15.8353062 1 3 5 2 2 0 0
300 1 15.1922236 2 1 7 2 1 1 0
301 1 16.3601132 0 3 6 4 0 0 0
302 1 14.9647398 0 2 8 2 0 0 0
303 1 13.6374417 1 2 6 3 1 0 0
304 1 15.3413849 0 1 10 2 0 0 0
305 1 14.7309828 0 3 6 4 0 0 0
306 1 15.3721361 0 0 12 0 0 0 0
307 1 14.6440726 0 3 6 4 0 0 0
308 1 13.903513 0 0 12 0 0 0 0
309 1 13.9052114 0 0 12 0 0 0 0
310 1 15.4020481 1 2 6 3 1 0 0
311 1 16.2025662 0 1 10 2 0 0 0
312 1 15.0987988 3 2 2 6 1 1 0
313 1 16.4449559 0 4 4 7 0 0 0
314 1 14.6287861 0 0 12 0 0 0 0
315 1 14.3352432 0 0 12 0 0 0 0
316 1 15.839737 2 2 5 4 1 1 0
317 1 14.820571 0 1 10 2 0 0 0
318 1 16.8106518 0 3 6 4 0 0 0
319 1 15.1680813 0 4 4 7 0 0 0
320 1 15.3252373 1 2 7 3 0 1 0
321 1 14.2297468 0 1 10 2 0 0 0
322 1 15.7016411 0 2 8 2 0 0 0
323 1 16.3529625 0 1 10 2 0 0 0
324 1 15.8646232 0 2 8 2 0 0 0
325 1 16.9753056 2 2 4 2 2 0 0
326 1 14.674202 0 0 12 0 0 0 0
327 1 16.3597317 0 3 6 5 0 0 0
328 1 14.8784762 0 3 6 4 0 0 0
329 1 13.9259454 0 0 12 0 0 0 0
330 1 15.7819987 2 2 4 4 2 0 0
331 1 14.2197714 1 0 9 3 0 0 0
332 1 16.6164189 0 2 8 1 0 0 0
333 1 15.2736988 1 3 4 5 1 0 0
334 1 14.6942206 3 2 3 4 2 1 0
335 1 15.6324568 0 3 6 4 0 0 0
336 1 14.394023 0 3 6 4 0 0 0
337 1 14.8171416 0 3 6 3 0 0 0
338 1 17.2296696 1 3 4 6 1 0 0
339 1 13.3759213 0 0 12 0 0 0 0
340 1 15.7364025 1 3 5 3 2 0 0
341 1 16.0709572 0 2 8 1 0 0 0
342 1 14.2410269 0 3 6 2 0 0 0
343 1 15.0823441 0 2 8 2 0 0 0
344 1 15.4691344 0 3 6 4 0 0 0
345 1 16.7517472 0 2 8 2 0 0 0
346 1 14.2933483 0 0 12 0 0 0 0
347 1 15.4172812 1 2 5 4 0 0 0
348 1 14.378438 0 0 12 0 0 0 0
349 1 15.9044734 0 2 8 2 0 0 0
350 1 14.4601355 0 2 8 2 0 0 0
351 1 17.0057411 1 4 4 3 3 0 0
352 1 14.7668791 0 2 8 1 0 0 0
353 1 15.6323061 0 2 8 2 0 0 0
354 1 13.3691979 0 1 10 2 0 0 0
355 1 14.8922292 0 2 8 1 0 0 0
356 1 14.1882134 0 1 10 2 0 0 0
357 1 13.4560757 0 0 12 0 0 0 0
358 1 15.6503678 0 1 10 2 0 0 0
359 1 14.5878353 0 0 12 0 0 0 0
360 1 14.132966 0 0 12 0 0 0 0
361 1 15.0034761 0 0 12 0 0 0 0
362 1 16.1810818 1 2 5 4 0 0 0
363 1 14.886117 0 1 10 2 0 0 0
364 1 14.5381308 0 2 8 2 0 0 0
365 1 14.9569074 0 2 8 1 0 0 0
366 1 13.9698076 0 0 12 0 0 0 0
367 1 12.7840243 0 0 12 0 0 0 0
368 1 15.514782 0 2 8 3 0 0 0
369 1 15.959095 0 1 10 3 0 0 0
370 1 14.4622488 0 1 10 2 0 0 0
371 1 14.8661214 0 3 6 4 0 0 0
372 1 13.8815546 0 1 10 2 0 0 0
373 1 15.7894383 0 0 12 0 0 0 0
374 1 13.9051686 0 1 10 2 0 0 0
375 1 15.6336985 1 2 6 4 1 0 0
376 1 16.8511314 0 1 10 2 0 0 0
377 1 15.9947396 0 3 6 4 0 0 0
378 1 14.972951 0 3 6 4 0 0 0
379 1 15.4179535 0 3 6 3 0 0 0
380 1 15.0262213 1 2 6 3 1 0 0
381 1 14.8220959 0 0 12 0 0 0 0
382 1 13.3874912 0 0 12 0 0 0 0
383 1 13.9549418 0 0 12 0 0 0 0
384 1 16.2230721 1 1 8 1 1 0 0
385 1 18.133812 1 3 4 5 1 0 0
386 1 15.355402 1 1 8 3 1 0 0
387 1 12.686182 0 0 12 0 0 0 0
388 1 14.1553173 1 0 9 3 0 0 0
389 1 13.503912 0 0 12 0 0 0 0
390 1 13.3940525 0 0 12 0 0 0 0
391 1 14.7670956 1 2 6 3 1 0 0
392 1 15.0310268 0 2 8 3 0 0 0
393 1 15.3850002 0 3 6 4 0 0 0
394 1 15.7609625 0 2 8 1 0 0 0
395 1 13.9146806 2 2 4 2 2 0 0
396 1 14.5572033 1 2 5 5 0 0 0
397 1 14.980424 0 2 8 1 0 0 0
398 1 15.707532 0 1 10 2 0 0 0
399 1 16.5262051 0 2 8 2 0 0 0
400 1 14.1459856 1 0 9 3 0 0 0
401 1 13.7699061 0 1 10 2 0 0 0
402 1 15.0262404 0 1 10 2 0 0 0
403 1 14.2662974 0 1 10 2 0 0 0
404 1 15.4684029 2 2 2 6 0 0 0
405 1 15.6671572 0 2 8 2 0 0 0
406 1 15.4629812 0 1 10 2 0 0 0
407 1 16.1426907 1 0 9 3 0 0 0
408 1 14.654275 0 1 10 2 0 0 0
409 1 14.3295164 0 0 12 0 0 0 0
410 1 16.0735531 0 3 6 4 0 0 0
411 1 15.4847183 0 1 10 2 0 0 0
412 1 14.8520518 1 2 5 4 0 0 0
413 1 14.9009304 0 3 6 3 0 0 0
414 1 14.349556 1 3 4 4 1 0 0
415 1 14.2614689 0 1 10 2 0 0 0
416 1 16.1360626 0 2 8 2 0 0 0
417 1 14.8766632 0 2 8 2 0 0 0
418 1 14.330164 0 0 12 0 0 0 0
419 1 14.1178503 0 0 12 0 0 0 0
420 1 12.9890052 0 0 12 0 0 0 0
421 1 13.4278851 0 0 12 0 0 0 0
422 1 15.1032143 0 3 7 1 1 0 0
423 1 17.4074135 0 5 3 5 1 0 0
424 1 14.3721209 0 0 12 0 0 0 0
425 1 12.6204386 0 0 12 0 0 0 0
426 1 15.2178955 1 2 5 5 0 0 0
427 1 15.0249519 0 2 8 1 0 0 0
428 1 15.2197704 1 2 5 4 0 0 0
429 1 15.2005301 0 3 6 3 0 0 0
430 1 14.2458744 0 3 6 3 0 0 0
431 1 15.5858946 0 0 12 0 0 0 0
432 1 13.4710131 0 0 12 0 0 0 0
433 1 13.374198 0 0 12 0 0 0 0
434 1 14.1847448 0 2 8 1 0 0 0
435 1 13.9056244 0 0 12 0 0 0 0
436 1 17.3098564 0 6 3 2 3 0 0
437 1 14.6086502 0 2 8 4 0 0 0
438 1 14.0254536 0 0 12 0 0 0 0
439 1 13.7516356 0 2 8 1 0 0 0
440 1 14.2932778 0 1 10 2 0 0 0
441 1 17.4150181 0 2 8 3 0 0 0
442 1 16.4279576 0 3 6 5 0 0 0
443 1 15.9036628 0 2 8 4 0 0 0
444 1 16.1576576 0 3 6 4 0 0 0
445 1 13.5066395 0 0 12 0 0 0 0
446 1 16.2090111 0 3 6 4 0 0 0
447 1 14.2720556 0 3 6 4 0 0 0
448 1 14.0947809 0 0 12 0 0 0 0
449 1 16.0608921 1 2 7 2 2 0 0
450 1 14.5781708 0 1 10 2 0 0 0
451 1 15.3935537 0 5 2 6 0 0 0
452 1 15.4613371 0 1 10 3 0 0 0
453 1 14.6814804 0 1 10 2 0 0 0
454 1 13.8063946 2 0 8 2 2 0 0
455 1 13.9526702 0 0 12 0 0 0 0
456 1 15.7637406 0 3 6 4 0 0 0
457 1 15.8395864 0 1 10 2 0 0 0
458 1 15.0612249 0 2 8 1 0 0 0
459 1 15.5527258 1 2 6 3 1 0 0
460 1 13.3815365 0 0 12 0 0 0 0
461 1 15.2819634 2 2 4 3 2 0 0
462 1 15.311388 0 3 6 4 0 0 0
463 1 14.369072 1 1 9 0 2 0 0
464 1 16.399931 0 4 4 4 0 0 0
465 1 16.3438702 0 0 12 0 0 0 0
466 1 16.0726852 1 2 7 4 0 1 0
467 1 13.7216454 0 0 12 0 0 0 0
468 1 16.7467652 0 1 10 2 0 0 0
469 1 14.1784525 0 1 10 2 0 0 0
470 1 14.8791418 0 2 8 2 0 0 0
471 1 15.2791805 0 0 12 2 0 0 0
472 1 15.4901772 1 2 5 3 0 0 0
473 1 16.6244183 1 2 6 3 1 0 0
474 1 14.68184 1 2 6 3 1 0 0
475 1 16.9265538 0 2 8 2 0 0 0
476 1 14.8686028 1 2 7 2 2 0 0
477 1 16.5255909 1 5 1 5 2 0 0
478 1 14.8586254 0 0 12 0 0 0 0
479 1 14.8459482 0 1 10 2 0 0 0
480 1 15.3226681 0 5 2 5 0 0 0
481 1 17.7866555 0 6 0 8 0 0 0
482 1 17.0652428 0 4 4 5 0 0 0
483 1 13.1297684 0 0 12 0 0 0 0
484 1 14.0706863 0 2 8 1 0 0 0
485 1 15.3650189 0 0 12 0 0 0 0
486 1 14.7149353 1 4 3 4 2 0 0
487 1 14.0136652 0 0 12 0 0 0 0
488 1 13.1946926 0 0 12 0 0 0 0
489 1 15.6406269 0 4 4 5 0 0 0
490 1 13.0597649 0 0 12 0 0 0 0
491 1 15.5091276 0 3 6 4 0 0 0
492 1 14.6132593 1 2 6 2 1 0 0
493 1 16.2102547 0 3 6 4 0 0 0
494 1 14.4357262 1 3 3 6 0 0 0
495 1 12.5427952 0 0 12 0 0 0 0
496 1 14.8365088 0 3 6 4 0 0 0
497 1 16.4834442 0 3 6 6 0 0 0
498 1 14.024581 0 2 8 2 0 0 0
499 1 14.2296248 0 5 2 6 0 0 0
500 1 14.6809588 0 2 8 1 0 0 0
501 1 14.6363287 0 0 12 0 0 0 0
502 1 15.8540068 1 3 5 2 2 0 0
503 1 16.4048863 0 3 6 4 0 0 0
504 1 15.1518269 0 2 8 2 0 0 0
505 1 14.1939077 0 3 6 5 0 0 0
506 1 14.284852 0 2 8 2 0 0 0
507 1 14.6380835 0 2 8 2 0 0 0
508 1 15.9246006 0 0 12 0 0 0 0
509 1 13.6873732 2 2 3 6 1 0 0
510 1 15.8206864 1 3 6 1 3 0 0
511 1 15.2507925 1 2 6 3 1 0 0
512 1 16.5768643 1 2 5 5 0 0 0
513 1 16.5048123 0 2 8 3 0 0 0
514 1 14.4856835 0 1 10 2 0 0 0
515 1 14.1820993 0 3 6 5 0 0 0
516 1 15.2738352 0 1 10 2 0 0 0
517 1 14.8616056 0 1 10 2 0 0 0
518 1 14.3135862 0 0 12 0 0 0 0
519 1 15.0489111 0 2 8 2 0 0 0
520 1 15.5426111 0 2 8 3 0 0 0
521 1 16.2937889 0 1 10 3 0 0 0
522 1 16.1530514 0 4 4 6 0 0 0
523 1 15.0012684 0 1 10 2 0 0 0
524 1 14.4334269 1 1 7 3 0 0 0
525 1 16.2378483 0 2 8 2 0 0 0
526 1 14.5758972 0 3 6 4 0 0 0
527 1 15.3009415 0 1 10 2 0 0 0
528 1 15.582139 0 1 10 2 0 0 0
529 1 13.4056244 0 0 12 0 0 0 0
530 1 17.081522 0 4 7 1 3 0 0
531 1 16.7608357 1 2 5 5 0 0 0
532 1 12.4317427 0 0 12 0 0 0 0
533 1 15.0289688 0 1 10 2 0 0 0
534 1 14.1412468 0 0 12 0 0 0 0
535 1 15.1863203 0 2 8 4 0 0 0
536 1 16.8023854 0 0 12 0 0 0 0
537 1 13.912735 0 1 10 2 0 0 0
538 1 16.1438809 1 2 5 4 0 0 0
539 1 15.3472805 0 0 12 0 0 0 0
540 1 15.4895592 1 2 5 4 0 0 0
541 1 16.3505993 1 3 3 7 0 0 0
542 1 15.402772 1 0 9 3 0 0 0
543 1 16.2829247 1 3 4 5 1 0 0
544 1 13.8922006 0 2 8 4 0 0 0
545 1 14.8254748 0 1 10 2 0 0 0
546 1 16.6923275 0 4 4 6 0 0 0
547 1 14.4823017 0 2 8 2 0 0 0
548 1 14.7733212 0 1 10 2 0 0 0
549 1 13.8840208 0 2 8 4 0 0 0
550 1 16.496069 0 4 4 5 0 0 0
551 1 14.2107725 0 0 12 0 0 0 0
552 1 14.3004999 0 0 12 0 0 0 0
553 1 14.5306435 1 2 5 5 0 0 0
554 1 13.759346 0 0 12 0 0 0 0
555 1 14.01017 0 0 12 0 0 0 0
556 1 15.7326489 0 2 8 3 0 0 0
557 1 17.0651188 0 4 5 4 1 0 0
558 1 15.9870548 0 3 6 4 0 0 0
559 1 15.9083786 1 1 8 1 1 0 0
560 1 16.3539372 2 3 3 4 1 1 0
561 1 17.1706829 2 4 2 3 4 0 0
562 1 15.38904 0 2 8 2 0 0 0
563 1 13.884305 1 1 8 3 1 0 0
564 1 16.7695561 2 2 4 2 2 0 0
565 1 13.9777136 0 2 8 2 0 0 0
566 1 14.3957338 0 1 10 2 0 0 0
567 1 13.3309975 0 3 6 4 0 0 0
568 1 15.8775072 0 2 8 4 0 0 0
569 1 14.8384877 0 1 10 2 0 0 0
570 1 14.2558832 0 0 12 0 0 0 0
571 1 15.9873372 0 3 6 4 0 0 0
572 1 14.8319989 0 0 12 0 0 0 0
573 1 14.1035395 0 0 12 0 0 0 0
574 1 15.3010216 1 2 5 3 0 0 0
575 1 15.7714291 0 2 8 2 0 0 0
576 1 14.5020781 0 2 8 2 0 0 0
577 1 15.4084559 0 3 6 4 0 0 0
578 1 14.5744829 0 3 6 4 0 0 0
579 1 14.3890772 0 3 6 4 0 0 0
580 1 16.9023286 0 3 6 5 0 0 0
581 1 13.8941374 0 0 12 0 0 0 0
582 1 14.9996692 1 2 5 4 0 0 0
583 1 14.4366846 0 2 8 1 0 0 0
584 1 14.8178187 0 1 10 2 0 0 0
585 1 14.8946334 0 3 6 4 0 0 0
586 1 13.9836216 0 0 12 0 0 0 0
587 1 14.0364256 0 0 12 0 0 0 0
588 1 14.5889015 0 0 12 0 0 0 0
589 1 16.2438946 0 3 6 4 0 0 0
590 1 15.0850201 1 3 4 5 1 0 0
591 1 15.1938105 0 3 6 2 0 0 0
592 1 13.8988448 0 1 10 3 0 0 0
593 1 14.7135849 0 2 8 2 0 0 0
594 1 15.3668223 0 1 10 2 0 0 0
595 1 15.0036631 0 3 6 3 0 0 0
596 1 13.8398552 0 1 10 2 0 0 0
597 1 15.8118201 0 2 8 4 0 0 0
598 1 18.2814121 1 1 7 5 0 0 0
599 1 15.2646389 0 3 7 2 1 0 0
600 1 12.8560562 0 2 8 2 0 0 0
601 1 16.3616867 1 1 8 1 1 0 0
602 1 14.2837381 1 3 4 5 1 0 0
603 1 15.4408427 0 2 8 2 0 0 0
604 1 16.660204 0 1 10 2 0 0 0
605 1 15.1693468 0 1 10 3 0 0 0
606 1 16.3101521 0 1 10 2 0 0 0
607 1 13.9582254 2 2 4 4 0 1 0
608 1 14.8999758 0 3 6 4 0 0 0
609 1 15.3743391 1 2 8 1 1 1 0
610 1 15.1469536 0 2 8 2 0 0 0
611 1 14.7042408 1 1 8 3 1 0 0
612 1 15.1600885 0 3 6 4 0 0 0
613 1 15.5481272 0 4 4 5 0 0 0
614 1 13.5084772 0 0 12 0 0 0 0
615 1 13.9323302 0 4 4 4 0 0 0
616 1 14.6530218 0 1 10 3 0 0 0
617 1 15.609766 0 3 6 3 0 0 0
618 1 15.4250069 0 0 12 0 0 0 0
619 1 16.0943947 2 2 3 4 1 0 0
620 1 16.7586251 2 4 2 4 2 1 0
621 1 14.8171492 0 1 10 2 0 0 0
622 1 15.0657158 0 0 12 0 0 0 0
623 1 15.7986546 1 2 6 3 1 0 0
624 1 16.0607471 0 3 6 3 0 0 0
625 1 17.064682 0 1 10 2 0 0 0
626 1 14.5536127 0 2 8 1 0 0 0
627 1 14.9626818 0 3 6 4 0 0 0
628 1 13.9455214 1 2 6 3 1 0 0
629 1 12.8806096 0 2 8 0 0 0 0
630 1 16.6174069 1 3 4 5 1 0 0
631 1 16.1727657 2 3 3 5 3 0 0
632 1 15.6279869 0 1 10 2 0 0 0
633 1 13.7878914 0 2 8 1 0 0 0
634 1 15.2948036 0 3 6 4 0 0 0
635 1 16.1600227 0 4 4 6 0 0 0
636 1 14.547699 0 2 8 4 0 0 0
637 1 14.989236 0 3 6 3 0 0 0
638 1 13.8999882 0 0 12 0 0 0 0
639 1 14.1664066 0 1 10 2 0 0 0
640 1 15.0496349 2 1 6 0 2 0 0
641 1 14.9985744 0 2 8 2 0 0 0
642 1 13.8701716 0 2 8 2 0 0 0
643 1 13.6511097 0 0 12 0 0 0 0
644 1 16.913046 0 3 6 5 0 0 0
645 1 17.9324646 1 4 4 3 1 1 0
646 1 14.8417416 0 3 6 5 0 0 0
647 1 16.749897 0 1 10 2 0 0 0
648 1 14.8911668 0 2 8 2 0 0 0
649 1 13.7720204 0 0 12 0 0 0 0
650 1 15.1600037 0 0 12 0 0 0 0
651 1 12.914217 0 1 10 2 0 0 0
652 1 15.4713106 0 4 4 4 0 0 0
653 1 16.2986641 0 3 6 5 0 0 0
654 1 14.3297281 0 2 8 3 0 0 0
655 1 15.0323391 0 2 8 2 0 0 0
656 1 14.4886637 0 1 10 3 0 0 0
657 1 14.0323362 0 0 12 0 0 0 0
658 1 14.3079348 0 1 10 2 0 0 0
659 1 16.0371456 1 2 5 5 0 0 0
660 1 17.4977818 0 4 5 4 1 0 0
661 1 15.1722908 0 2 8 1 0 0 0
662 1 14.908805 0 3 7 4 1 0 0
663 1 15.6835699 0 2 8 2 0 0 0
664 1 13.7532301 0 2 8 4 0 0 0
665 1 16.2128563 0 2 8 2 0 0 0
666 1 14.6194878 0 2 8 2 0 0 0
667 1 13.1896257 0 3 6 4 0 0 0
668 1 15.6409083 0 0 12 0 0 0 0
669 1 14.9745398 0 2 8 2 0 0 0
670 1 14.5526686 0 3 6 4 0 0 0
671 1 14.860774 0 0 12 0 0 0 0
672 1 16.234623 2 2 3 5 1 0 0
673 1 14.1542978 0 3 6 5 0 0 0
674 1 16.2088909 0 2 8 4 0 0 0
675 1 14.2824593 0 1 10 2 0 0 0
676 1 15.789526 1 2 5 4 0 0 0
677 1 14.5218983 0 0 12 0 0 0 0
678 1 14.5151987 1 2 5 4 0 0 0
679 1 15.4381037 1 2 7 2 2 0 0
680 1 15.587492 0 3 6 4 0 0 0
681 1 14.7014008 0 1 10 2 0 0 0
682 1 13.2790451 0 0 12 0 0 0 0
683 1 15.8638182 0 3 6 3 0 0 0
684 1 14.0551109 0 4 4 4 0 0 0
685 1 18.0760632 0 4 4 6 0 0 0
686 1 15.0316038 0 1 10 2 0 0 0
687 1 14.6846314 0 0 12 0 0 0 0
688 1 14.6713839 0 1 10 2 0 0 0
689 1 14.1529932 0 1 10 2 0 0 0
690 1 14.9339362 0 2 8 2 0 0 0
691 1 13.9778128 0 0 12 0 0 0 0
692 1 15.623704 0 4 4 4 0 0 0
693 1 17.8624992 1 0 9 3 0 0 0
694 1 15.3895941 0 1 10 2 0 0 0
695 1 14.8245211 0 4 4 6 0 0 0
696 1 14.870371 0 0 12 2 0 0 0
697 1 13.8172732 0 2 8 2 0 0 0
698 1 14.2270727 0 0 12 0 0 0 0
699 1 13.4317408 0 0 12 0 0 0 0
700 1 13.687418 0 4 5 4 1 0 0
701 1 13.2706995 0 0 12 0 0 0 0
702 1 16.5343018 0 3 6 4 0 0 0
703 1 18.1567402 0 0 12 0 0 0 0
704 1 15.1596775 0 1 10 2 0 0 0
705 1 14.0926886 0 3 6 4 0 0 0
706 1 14.5658722 0 0 12 0 0 0 0
707 1 17.3075905 0 3 6 4 0 0 0
708 1 15.0871859 0 1 10 2 0 0 0
709 1 15.3040333 0 2 8 2 0 0 0
710 1 13.974784 1 0 9 3 0 0 0
711 1 14.5310707 0 2 8 2 0 0 0
712 1 14.0795927 0 2 8 4 0 0 0
713 1 16.8295861 1 4 3 5 2 0 0
714 1 16.7626934 0 3 6 5 0 0 0
715 1 14.709075 0 3 6 4 0 0 0
716 1 16.3022633 0 1 10 2 0 0 0
717 1 15.8388529 0 2 8 2 0 0 0
718 1 14.5580244 0 0 12 0 0 0 0
719 1 15.1470785 2 3 3 5 1 1 0
720 1 15.7080517 0 1 10 2 0 0 0
721 1 15.6178837 0 1 10 2 0 0 0
722 1 15.6375819 0 1 10 2 0 0 0
723 1 15.001133 0 2 8 2 0 0 0
724 1 15.6678496 2 2 3 4 1 0 0
725 1 14.3345165 0 0 12 0 0 0 0
726 1 17.9260826 2 2 3 5 1 0 0
727 1 14.163866 0 1 10 2 0 0 0
728 1 12.7147236 0 0 12 0 0 0 0
729 1 14.985178 1 5 2 5 1 1 0
730 1 14.8288164 0 1 10 2 0 0 0
731 1 13.8063011 0 0 12 0 0 0 0
732 1 14.8724852 1 2 5 5 0 0 0
733 1 14.6728449 0 0 12 0 0 0 0
734 1 16.1659622 0 1 10 4 0 0 0
735 1 14.1748257 0 2 8 2 0 0 0
736 1 15.0686245 0 3 6 4 0 0 0
737 1 14.6996718 0 1 10 2 0 0 0
738 1 14.469698 0 2 8 1 0 0 0
739 1 13.8419418 0 2 8 2 0 0 0
740 1 15.5394011 1 2 6 2 1 0 0
741 1 13.7387858 0 0 12 0 0 0 0
742 1 16.4194432 1 2 6 3 1 0 0
743 1 17.5616703 1 3 4 6 1 0 0
744 1 14.5901079 0 0 12 0 0 0 0
745 1 13.5587683 0 0 12 0 0 0 0
746 1 17.2287579 1 3 4 5 1 0 0
747 1 18.3056317 0 3 7 2 1 0 0
748 1 15.127923 0 0 12 0 0 0 0
749 1 14.3671436 1 0 9 3 0 0 0
750 1 15.3067026 0 0 12 0 0 0 0
751 1 15.7958508 0 4 4 4 0 0 0
752 1 13.865862 0 0 12 0 0 0 0
753 1 15.1294861 0 1 10 2 0 0 0
754 1 17.0390492 1 3 3 4 0 0 0
755 1 14.1696215 0 3 6 4 0 0 0
756 1 16.1126137 1 2 6 3 1 0 0
757 1 14.5663758 0 1 10 2 0 0 0
758 1 14.8192082 0 2 8 2 0 0 0
759 1 14.5317078 1 2 6 3 1 0 0
760 1 15.4824524 0 1 10 2 0 0 0
761 1 14.464263 0 4 4 6 0 0 0
762 1 16.6800556 0 4 4 4 0 0 0
763 1 14.0692472 0 3 6 4 0 0 0
764 1 15.8865062 0 3 6 5 0 0 0
765 1 14.9511442 0 1 10 2 0 0 0
766 1 13.8707372 0 0 12 0 0 0 0
767 1 14.8092575 0 0 12 0 0 0 0
768 1 15.5453453 0 0 12 0 0 0 0
769 1 16.2993298 0 3 6 4 0 0 0
770 1 13.008029 1 2 5 4 0 0 0
771 1 13.7378521 0 0 12 0 0 0 0
772 1 13.9687262 0 0 12 0 0 0 0
773 1 14.4112244 0 2 8 2 0 0 0
774 1 14.7296429 0 1 10 4 0 0 0
775 1 14.9597312 1 2 6 4 1 0 0
776 1 14.8688422 1 3 4 3 1 0 0
777 1 14.9106512 0 1 10 2 0 0 0
778 1 15.1183291 0 4 4 6 0 0 0
779 1 14.6481533 2 2 4 4 0 1 0
780 1 14.8434 0 3 6 3 0 0 0
781 1 16.6934567 2 2 3 6 1 0 0
782 1 16.8216915 1 2 6 2 1 0 0
783 1 14.4093714 0 0 12 0 0 0 0
784 1 14.0801563 1 2 5 3 0 0 0
785 1 15.2114592 1 0 9 3 0 0 0
786 1 13.0585547 0 0 12 0 0 0 0
787 1 15.342473 0 0 12 2 0 0 0
788 1 14.1630154 0 0 12 0 0 0 0
789 1 15.2452812 0 2 8 4 0 0 0
790 1 15.4472513 0 2 8 2 0 0 0
791 1 14.3647165 0 1 10 2 0 0 0
792 1 13.7641955 0 0 12 0 0 0 0
793 1 14.4232331 0 0 12 0 0 0 0
794 1 16.0368958 1 1 8 3 1 0 0
795 1 15.134244 0 2 8 3 0 0 0
796 1 13.8323469 0 0 12 0 0 0 0
797 1 12.6279707 0 0 12 0 0 0 0
798 1 15.8610068 0 2 8 4 0 0 0
799 1 14.4945936 0 2 8 2 0 0 0
800 1 14.8014279 0 3 6 3 0 0 0
801 1 18.190773 0 3 6 6 0 0 0
802 1 15.7871371 0 4 4 6 0 0 0
803 1 15.7690249 0 4 4 3 0 0 0
804 1 15.184619 2 2 4 4 0 1 0
805 1 14.8989736 0 3 6 5 0 0 0
806 1 15.2416592 0 2 8 2 0 0 0
807 1 16.1767254 0 1 10 4 0 0 0
808 1 16.2288818 2 2 5 3 1 1 0
809 1 13.165535 0 0 12 0 0 0 0
810 1 13.819932 0 3 7 3 1 0 0
811 1 15.8631354 0 3 6 5 0 0 0
812 1 15.4131613 0 0 12 0 0 0 0
813 1 14.7026539 0 0 12 0 0 0 0
814 1 16.1313343 1 2 5 5 0 0 0
815 1 13.844123 0 4 4 7 0 0 0
816 1 13.3639813 0 2 8 0 0 0 0
817 1 15.1535797 0 2 8 1 0 0 0
818 1 13.5033951 0 0 12 0 0 0 0
819 1 15.0037041 0 0 12 0 0 0 0
820 1 15.1768951 0 0 12 0 0 0 0
821 1 15.2119017 0 2 8 4 0 0 0
822 1 13.5992422 0 0 12 0 0 0 0
823 1 13.8316717 0 0 12 0 0 0 0
824 1 14.1879444 0 1 10 2 0 0 0
825 1 13.3715429 0 0 12 0 0 0 0
826 1 15.615696 0 2 8 4 0 0 0
827 1 13.2538777 0 1 10 2 0 0 0
828 1 17.1576099 1 4 3 4 2 0 0
829 1 14.9513312 0 3 6 2 0 0 0
830 1 13.9018594 0 0 12 0 0 0 0
831 1 15.6780367 0 0 12 0 0 0 0
832 1 15.9834976 0 2 8 2 0 0 0
833 1 15.9689226 0 3 6 4 0 0 0
834 1 13.8948604 0 1 10 2 0 0 0
835 1 15.9663582 0 1 10 2 0 0 0
836 1 14.1074762 0 0 12 0 0 0 0
837 1 16.0798473 0 4 4 6 0 0 0
838 1 15.4904604 0 2 8 2 0 0 0
839 1 14.266469 0 5 3 4 1 0 0
840 1 16.546587 0 1 10 2 0 0 0
841 1 16.8841228 0 1 10 3 0 0 0
842 1 17.13591 2 2 5 3 1 1 0
843 1 12.8736362 0 2 8 2 0 0 0
844 1 14.0155029 0 3 6 5 0 0 0
845 1 16.1915264 0 2 8 1 0 0 0
846 1 14.668829 0 0 12 0 0 0 0
847 1 15.3146219 1 1 8 3 1 0 0
848 1 15.6860752 0 2 8 2 0 0 0
849 1 13.6305094 0 0 12 0 0 0 0
850 1 16.0019455 0 0 12 0 0 0 0
851 1 16.2208557 1 3 4 4 1 0 0
852 1 15.9724026 0 1 10 2 0 0 0
853 1 14.9181224 0 3 6 4 0 0 0
854 1 14.4448557 0 2 8 2 0 0 0
855 1 13.8120041 1 2 5 4 0 0 0
856 1 14.0674686 0 1 10 2 0 0 0
857 1 14.2335587 0 1 10 3 0 0 0
858 1 15.0097313 0 0 12 0 0 0 0
859 1 13.8049078 0 0 12 0 0 0 0
860 1 16.1829128 0 1 10 2 0 0 0
861 1 13.7637196 0 4 4 6 0 0 0
862 1 15.4087057 0 1 10 2 0 0 0
863 1 16.7791977 1 1 9 2 2 0 0
864 1 14.1529827 0 1 10 2 0 0 0
865 1 15.5175257 0 1 10 2 0 0 0
866 1 16.4101048 1 2 5 5 0 0 0
867 1 15.0211535 0 1 10 2 0 0 0
868 1 13.9411526 0 0 12 0 0 0 0
869 1 17.1368942 0 3 6 3 0 0 0
870 1 15.7699414 1 1 8 4 1 0 0
871 1 14.2555494 0 0 12 0 0 0 0
872 1 14.9190454 0 2 8 4 0 0 0
873 1 14.9342376 0 4 5 4 1 0 0
874 1 14.2477198 0 3 6 4 0 0 0
875 1 14.1106119 0 0 12 0 0 0 0
876 1 17.0993538 1 2 5 5 0 0 0
877 1 14.003437 0 2 8 2 0 0 0
878 1 13.9583902 0 0 12 0 0 0 0
879 1 14.0668736 0 1 10 2 0 0 0
880 1 15.0721884 0 1 10 2 0 0 0
881 1 15.0164156 0 2 8 3 0 0 0
882 1 15.1527243 0 1 10 2 0 0 0
883 1 15.488184 0 4 5 4 1 0 0
884 1 15.8709832 0 3 6 4 0 0 0
885 1 13.4429541 0 3 6 4 0 0 0
886 1 14.329731 0 4 4 7 0 0 0
887 1 14.1112185 0 1 10 2 0 0 0
888 1 15.0421677 0 1 10 2 0 0 0
889 1 15.3348742 2 1 6 2 2 0 0
890 1 15.0581322 0 0 12 0 0 0 0
891 1 13.6514988 0 3 6 3 0 0 0
892 1 13.247489 0 2 8 1 0 0 0
893 1 14.4716254 2 1 7 1 1 1 0
894 1 16.1507034 0 2 8 3 0 0 0
895 1 16.4832897 0 3 6 5 0 0 0
896 1 14.7136688 0 2 8 2 0 0 0
897 1 16.2626515 0 3 6 2 0 0 0
898 1 15.7013636 0 1 10 2 0 0 0
899 1 13.9494362 0 1 10 2 0 0 0
900 1 14.2489996 0 2 8 2 0 0 0
901 1 15.9792434 1 3 3 6 0 0 0
902 1 14.2864752 0 0 12 0 0 0 0
903 1 16.3366165 1 3 4 5 1 0 0
904 1 14.7570267 0 2 8 2 0 0 0
905 1 15.1948996 0 4 4 6 0 0 0
906 1 14.8069821 0 4 5 4 1 0 0
907 1 16.3033371 0 3 6 3 0 0 0
908 1 14.5593329 0 0 12 0 0 0 0
909 1 14.8402596 1 3 5 2 2 0 0
910 1 16.4947129 0 3 6 5 0 0 0
911 1 15.317873 2 2 4 4 0 1 0
912 1 14.6229458 0 2 8 4 0 0 0
913 1 14.9988194 0 2 8 2 0 0 0
914 1 12.9720774 0 0 12 0 0 0 0
915 1 14.1654911 0 0 12 0 0 0 0
916 1 14.2911978 0 2 8 2 0 0 0
917 1 15.7264624 0 3 6 4 0 0 0
918 1 14.6092882 0 0 12 0 0 0 0
919 1 14.6767836 1 2 7 2 2 0 0
920 1 14.6118412 0 0 12 0 0 0 0
921 1 14.7794304 0 0 12 2 0 0 0
922 1 15.8592206 0 3 6 4 0 0 0
923 1 16.4200802 1 2 6 2 1 0 0
924 1 14.9128704 0 2 8 2 0 0 0
925 1 14.0331545 0 2 8 2 0 0 0
926 1 14.3029308 0 0 12 0 0 0 0
927 1 14.7152043 0 4 4 5 0 0 0
928 1 14.010457 0 0 12 0 0 0 0
929 1 13.7361613 0 0 12 0 0 0 0
930 1 14.7689648 0 3 6 4 0 0 0
931 1 13.0344448 0 0 12 0 0 0 0
932 1 16.0348854 1 0 9 3 0 0 0
933 1 16.3292561 0 4 4 6 0 0 0
934 1 16.1483822 0 2 8 1 0 0 0
935 1 15.5570526 0 2 8 1 0 0 0
936 1 15.9697104 0 2 8 4 0 0 0
937 1 14.4405737 0 2 8 4 0 0 0
938 1 15.4474812 1 4 3 5 2 0 0
939 1 16.6820336 0 4 5 3 1 0 0
940 1 12.9653894 0 0 12 0 0 0 0
941 1 15.2584973 1 2 6 5 1 0 0
942 1 12.861642 0 0 12 0 0 0 0
943 1 17.7891007 1 3 4 4 1 0 0
944 1 15.8137083 1 2 6 3 1 0 0
945 1 15.6205235 1 2 7 2 2 0 0
946 1 14.3831015 0 1 10 2 0 0 0
947 1 15.4488335 0 1 10 2 0 0 0
948 1 15.1627073 0 2 8 2 0 0 0
949 1 14.4634371 0 1 10 2 0 0 0
950 1 14.7139874 0 0 12 0 0 0 0
951 1 14.6344595 0 1 10 3 0 0 0
952 1 15.9652654 0 2 8 3 0 0 0
953 1 15.5905819 0 2 8 2 0 0 0
954 1 16.17589 0 2 8 3 0 0 0