#ITEM: NUMBER OF ATOMS

2000 atoms
2 atom types

#ITEM: BOX BOUNDS pp pp pp

0.299875 32.130125 xlo xhi
0.299875 32.130125 ylo yhi
0.299875 32.130125 zlo zhi

  Atoms

1	1	8.084830	21.781000	22.111500
2	1	25.708900	0.640457	28.733800
3	1	19.918400	11.682300	8.358270
4	1	16.144600	26.471700	11.945300
5	1	23.454600	19.795500	24.713000
6	1	3.817260	19.145200	21.304200
7	1	22.817900	23.682000	25.461300
8	1	9.606720	18.569600	18.002100
9	1	15.048500	16.975500	17.027200
10	1	21.785400	3.686730	31.131200
11	1	19.478300	18.782500	8.066030
12	1	6.585370	4.704490	31.821600
13	1	22.355500	11.916200	24.162200
14	1	3.725120	6.326340	5.623670
15	1	3.427480	30.666400	25.077600
16	1	26.012400	19.582600	24.111600
17	1	7.339010	26.480700	30.394900
18	1	15.531700	29.565000	6.331960
19	1	27.907600	18.336900	12.954900
20	1	2.998530	24.648700	8.603120
21	1	31.758500	15.281300	12.438200
22	1	23.583800	28.701500	13.512900
23	1	8.856450	29.349600	17.435900
24	1	20.581300	31.563100	18.519100
25	1	16.682000	29.375100	16.629200
26	1	23.205600	17.253400	28.139000
27	1	30.315100	28.642700	5.176140
28	1	25.064400	25.831500	14.646800
29	1	9.078210	29.012600	20.133900
30	1	18.032800	26.892700	16.371400
31	1	27.889600	3.066240	12.599000
32	1	25.704600	1.313450	31.268600
33	1	21.308200	3.762810	19.513900
34	1	26.172400	20.550000	3.599300
35	1	24.795700	13.016800	24.476700
36	1	5.864060	0.635012	1.565620
37	1	22.033500	18.902400	22.993400
38	1	18.154700	31.809700	1.168390
39	1	25.484300	17.545100	25.545400
40	1	23.676000	18.388100	17.697600
41	1	28.909200	0.591449	21.967000
42	1	17.260100	18.719400	6.765190
43	1	8.439540	26.571300	23.741000
44	1	24.474600	21.588300	14.919100
45	1	22.736600	16.128800	22.765900
46	1	16.248900	27.419900	4.842740
47	1	21.554200	19.211100	18.721100
48	1	16.980900	14.951900	16.456400
49	1	21.527200	9.543160	0.682674
50	1	25.065700	10.279900	2.847490
51	1	10.969900	28.211500	3.647100
52	1	1.393890	7.423570	19.387800
53	1	5.516540	8.391700	26.133000
54	1	5.983190	3.718300	9.724830
55	1	12.356100	16.365400	25.379700
56	1	26.343500	1.745750	20.632000
57	1	15.084100	14.345300	9.008920
58	1	18.768700	15.172900	23.589000
59	1	11.112800	22.337700	25.641700
60	1	21.046200	18.354900	2.204260
61	1	11.558500	17.615700	6.574590
62	1	9.131550	9.063560	15.111100
63	1	13.743000	28.198900	24.521700
64	1	5.150930	4.488880	19.354600
65	1	8.553660	13.223800	2.430070
66	1	24.583800	25.657700	8.820810
67	1	25.050300	6.505370	5.034420
68	1	30.067500	25.724800	8.395280
69	1	25.466000	31.176700	10.859000
70	1	19.082700	3.522810	11.353500
71	1	22.141900	25.505700	21.705400
72	1	4.511460	14.231100	1.221750
73	1	22.355700	2.403180	22.507600
74	1	2.288180	21.567400	14.364800
75	1	30.581200	2.872280	22.144900
76	1	23.980600	18.525100	6.758420
77	1	23.441900	8.442710	31.004100
78	1	23.147100	22.698600	16.929000
79	1	12.116400	24.437200	20.577900
80	1	1.036750	28.633200	15.417800
81	1	7.268680	19.556100	18.349000
82	1	0.985637	20.310300	30.379100
83	1	24.171900	11.272800	18.996900
84	1	10.578000	30.241500	10.987700
85	1	28.831500	30.562400	19.704900
86	1	12.981200	13.515900	2.981810
87	1	30.693900	7.048860	2.707040
88	1	23.365300	4.188310	1.712940
89	1	15.813800	17.662100	29.032400
90	1	14.413800	2.359260	4.651600
91	1	2.773680	3.245960	30.144100
92	1	0.796646	28.828100	20.027400
93	1	14.752700	15.662800	21.039100
94	1	7.933480	30.055400	11.037900
95	1	19.299800	14.641400	11.493500
96	1	1.248630	19.165800	11.086900
97	1	5.964120	18.642700	29.986100
98	1	10.157400	5.385040	10.025400
99	1	6.368350	30.068200	2.299300
100	1	19.459000	17.733600	13.078400
101	1	19.161300	11.813200	31.881100
102	1	21.283200	16.828100	31.941200
103	1	8.008480	19.026900	3.626930
104	1	7.039350	16.427800	26.135100
105	1	6.960900	25.061500	25.093600
106	1	19.997500	18.842900	21.490400
107	1	25.585600	4.133550	20.471500
108	1	22.598900	20.822100	13.314400
109	1	5.581140	23.443000	26.344200
110	1	4.859040	20.837400	12.015400
111	1	16.385100	3.358620	28.163600
112	1	13.495500	4.050160	24.808700
113	1	20.298400	1.577380	0.452883
114	1	19.992100	5.455180	30.406200
115	1	7.123780	11.876200	29.967400
116	1	10.603200	17.238100	23.627700
117	1	6.650200	7.616130	8.463730
118	1	20.822900	17.164000	27.163700
119	1	5.261510	29.344300	7.702380
120	1	30.234600	20.254800	7.240210
121	1	20.193200	8.649210	13.043400
122	1	23.339700	30.331000	3.499480
123	1	1.346850	15.755700	8.364570
124	1	2.970620	29.458400	8.399600
125	1	8.296080	16.196400	23.826900
126	1	0.993818	4.780410	31.476800
127	1	9.603410	4.539960	22.406900
128	1	0.672456	8.860590	3.204210
129	1	3.251700	0.396848	29.986500
130	1	23.603200	4.553470	18.779900
131	1	28.757400	5.349780	6.575530
132	1	19.545800	29.548500	19.617500
133	1	31.950600	4.655090	9.379220
134	1	6.305780	11.322700	9.946550
135	1	17.396200	5.084150	26.363600
136	1	2.148410	3.620740	15.281100
137	1	6.982750	15.918000	11.959500
138	1	12.090900	9.855480	31.621400
139	1	13.888500	0.724933	22.217000
140	1	26.673100	12.599100	9.440010
141	1	16.633300	4.633220	0.482814
142	1	32.015900	7.801460	15.097900
143	1	1.858900	26.551400	16.673400
144	1	27.409300	9.691230	2.926670
145	1	9.411340	24.142300	2.607160
146	1	6.675330	27.410900	2.843170
147	1	13.799700	18.273400	20.746000
148	1	6.027230	13.716900	10.010600
149	1	16.351400	6.155070	13.271500
150	1	16.700600	29.683400	27.141300
151	1	27.918500	7.612000	13.566700
152	1	7.496960	8.846380	13.300300
153	1	21.115800	11.052600	30.536600
154	1	29.049100	29.721300	21.990500
155	1	24.631800	15.591900	12.865200
156	1	6.490290	21.428400	16.615300
157	1	8.837290	26.168300	26.229500
158	1	21.094300	5.724120	3.027170
159	1	28.195000	12.879300	32.023000
160	1	27.835100	16.236800	2.741600
161	1	31.792900	18.725200	16.854000
162	1	31.446300	1.487250	4.364390
163	1	28.018100	21.132200	12.434700
164	1	10.371400	29.576100	15.345700
165	1	3.458510	22.918300	31.162000
166	1	4.333740	28.650100	2.098080
167	1	22.083800	9.875070	11.667700
168	1	19.195100	4.609560	18.112400
169	1	11.980600	17.889900	17.453500
170	1	6.356650	26.081800	16.521100
171	1	27.985400	29.712900	31.217100
172	1	14.363500	11.529500	11.871600
173	1	8.401580	15.285500	14.030700
174	1	3.096330	24.780100	3.287620
175	1	8.995730	5.903490	25.358200
176	1	27.034700	24.261700	23.147600
177	1	14.394000	15.365000	28.629600
178	1	21.900800	15.758600	29.717700
179	1	25.394300	11.304800	14.481100
180	1	21.817900	24.652300	4.986560
181	1	25.833700	7.692850	2.934050
182	1	16.294400	10.949500	6.415110
183	1	29.699600	25.273200	1.353290
184	1	23.109400	10.635400	29.068800
185	1	20.322300	26.710000	22.862800
186	1	4.121500	13.058600	3.386180
187	1	4.238340	16.435400	26.250500
188	1	5.804760	12.892800	24.548300
189	1	2.359230	27.209300	2.365710
190	1	9.306940	6.061400	27.860200
191	1	12.930400	7.630580	6.281220
192	1	26.849700	16.555900	20.165600
193	1	9.701240	10.214100	7.621160
194	1	17.994100	7.866860	14.399200
195	1	17.072700	14.553500	5.453430
196	1	31.161100	11.030000	4.281280
197	1	14.903200	30.831900	28.779300
198	1	26.724700	2.825490	29.500000
199	1	19.205300	9.124430	18.697800
200	1	24.449300	17.943800	23.062400
201	1	12.187500	15.609800	27.706200
202	1	16.293800	25.242200	29.494300
203	1	26.669300	31.890600	16.372800
204	1	18.026000	29.573300	9.694640
205	1	9.179120	0.307463	30.511600
206	1	16.348600	1.627880	8.678030
207	1	30.706200	0.552329	28.742400
208	1	17.564600	15.345600	9.491740
209	1	5.821840	11.931000	16.205500
210	1	21.489000	12.002000	15.521700
211	1	28.801800	26.010100	10.676800
212	1	23.731100	15.589300	3.752340
213	1	9.045910	17.690500	7.652470
214	1	14.113600	23.785400	3.532490
215	1	1.838140	26.775100	19.288700
216	1	10.586400	25.172300	17.669700
217	1	16.686200	22.276400	11.083300
218	1	17.906400	3.310420	9.155790
219	1	17.697600	10.795200	17.498300
220	1	6.553260	18.251900	24.996300
221	1	19.783700	21.934100	21.082400
222	1	17.038400	27.471500	30.760600
223	1	29.406700	8.251790	11.466200
224	1	29.418600	21.395800	3.059050
225	1	25.076100	25.869800	29.448200
226	1	7.191720	26.120900	9.574090
227	1	17.465300	31.688000	15.444100
228	1	6.966820	20.651100	31.542700
229	1	15.098100	3.100940	17.690300
230	1	1.782460	13.765900	11.565700
231	1	8.204600	30.587000	4.821020
232	1	31.772200	12.838300	2.492080
233	1	2.911680	0.569635	0.968883
234	1	6.492860	1.353420	16.273600
235	1	15.207000	2.989950	23.066100
236	1	13.367500	17.739200	8.215280
237	1	17.967500	31.570500	18.012600
238	1	2.886010	15.684300	24.011900
239	1	5.805520	7.525590	6.187200
240	1	1.454910	22.623000	18.639300
241	1	19.164000	21.935000	10.750500
242	1	18.763800	21.741000	27.869400
243	1	14.105600	9.344000	10.339700
244	1	2.430900	11.560500	22.280400
245	1	31.241300	1.353820	12.906900
246	1	7.970120	24.510400	7.647020
247	1	14.670700	15.078300	15.413100
248	1	10.516000	13.280500	11.660600
249	1	25.855500	23.559400	29.455700
250	1	24.874100	16.091800	21.436100
251	1	12.850700	10.841300	17.286300
252	1	14.850500	15.776500	12.905100
253	1	21.445500	9.701570	4.880520
254	1	10.749100	9.086390	17.389400
255	1	2.653340	5.093980	22.691500
256	1	12.888000	25.289800	5.491910
257	1	14.088400	25.664100	15.452900
258	1	20.975700	25.926000	31.228700
259	1	4.379340	27.993000	15.764900
260	1	6.120570	29.840100	24.519100
261	1	9.663820	29.696800	31.527300
262	1	10.444900	13.828200	28.229700
263	1	21.786600	21.289200	10.791800
264	1	10.073000	8.064080	2.991530
265	1	5.535830	24.569400	8.240950
266	1	1.980800	16.380100	30.588700
267	1	2.327680	22.742800	2.128840
268	1	29.847400	5.573140	22.342500
269	1	5.103330	12.016300	28.287300
270	1	5.667960	14.379000	17.275000
271	1	12.597100	20.441600	20.725100
272	1	16.751100	9.956280	15.303600
273	1	11.810100	5.192730	28.514600
274	1	9.756530	20.271600	26.902000
275	1	4.201260	0.991300	15.324300
276	1	25.993900	4.628400	13.679300
277	1	24.905400	25.283400	24.828500
278	1	2.389760	17.602400	17.185300
279	1	27.344500	29.637600	15.743200
280	1	7.879780	9.451220	9.319540
281	1	8.616750	12.031800	32.123200
282	1	26.575700	18.950600	21.593500
283	1	27.282800	14.964100	10.031000
284	1	18.329200	25.374800	23.355100
285	1	19.603800	7.055660	17.108600
286	1	2.233800	3.031690	1.082080
287	1	30.969700	1.878090	6.806560
288	1	29.514700	14.878400	11.179100
289	1	29.660600	2.734300	14.445500
290	1	6.980660	1.928570	22.496000
291	1	5.907180	2.563220	5.528350
292	1	6.260600	31.459200	6.450600
293	1	1.678000	2.518180	3.582920
294	1	29.838600	9.280990	2.822890
295	1	9.885220	12.732800	24.953600
296	1	23.184300	14.401300	31.855900
297	1	17.412500	14.415400	25.893200
298	1	18.912600	8.695780	26.943300
299	1	18.522500	7.600630	9.159300
300	1	13.294100	27.409200	1.134070
301	1	6.118950	2.102460	25.756900
302	1	4.918160	4.211430	26.495300
303	1	8.074770	15.305100	27.995700
304	1	7.946860	6.243880	6.228470
305	1	2.537680	16.110900	1.161630
306	1	3.984480	25.191700	15.779500
307	1	1.075510	24.002600	4.667760
308	1	10.846200	18.643600	31.541900
309	1	1.161150	11.984100	0.391459
310	1	3.061720	25.390800	23.470100
311	1	27.489700	11.254500	7.125160
312	1	2.248130	15.648300	13.460300
313	1	10.689700	30.801300	3.795490
314	1	17.552200	29.592600	31.944400
315	1	21.823800	11.418500	6.579330
316	1	13.652000	11.169800	6.560990
317	1	4.376730	31.414400	13.002800
318	1	14.677500	11.851400	18.855700
319	1	13.096000	19.215500	10.143900
320	1	23.219300	31.836100	18.573900
321	1	26.939400	21.546500	22.622400
322	1	29.224300	16.554300	19.343700
323	1	29.038800	4.518060	24.518300
324	1	12.842100	29.305700	28.694900
325	1	12.040700	1.650080	20.239900
326	1	1.311100	6.863350	9.652880
327	1	12.102500	8.972140	24.852200
328	1	28.559300	27.748500	8.582650
329	1	19.269700	14.910400	4.170550
330	1	29.155300	8.654750	17.930400
331	1	7.210370	23.160600	3.453370
332	1	4.457420	10.376700	3.097640
333	1	10.894900	17.857200	27.181600
334	1	1.831980	30.167100	21.743900
335	1	7.546750	28.698200	22.658600
336	1	29.222600	15.268300	6.534160
337	1	12.332700	2.643350	29.658800
338	1	20.651500	11.283400	22.255800
339	1	7.684400	29.247300	6.871190
340	1	25.835300	24.540200	10.785100
341	1	10.917200	14.090400	9.324190
342	1	24.408700	1.364010	10.062200
343	1	29.428500	0.594994	2.964290
344	1	17.472200	17.918400	9.353170
345	1	11.442800	20.569800	1.627440
346	1	7.393590	16.515900	30.218900
347	1	27.503900	20.047700	27.821800
348	1	28.339200	16.626000	14.964600
349	1	7.005370	2.862230	29.902100
350	1	16.939700	31.721800	12.730000
351	1	22.655500	7.884160	21.510500
352	1	1.842980	30.708800	31.304500
353	1	8.145790	16.138700	2.522450
354	1	22.494500	10.279900	26.412400
355	1	17.902600	2.268290	0.501324
356	1	20.908900	13.420900	13.503600
357	1	17.720800	8.640160	2.041530
358	1	21.607800	12.318400	1.240720
359	1	15.948500	29.697700	24.669300
360	1	2.841180	3.987970	27.653100
361	1	10.685300	26.560500	5.386140
362	1	25.448700	2.552310	27.191400
363	1	24.636300	9.871670	12.316300
364	1	17.320300	25.634000	25.636800
365	1	27.774800	25.245700	3.894140
366	1	28.687300	10.209900	4.970820
367	1	28.397700	19.589900	23.298300
368	1	27.491700	20.572100	1.332170
369	1	2.490930	1.996880	19.443100
370	1	27.708000	3.403910	19.000000
371	1	25.198100	24.400300	27.024900
372	1	6.418220	9.546200	15.506400
373	1	29.222800	0.652415	5.503330
374	1	25.621800	24.629400	0.422868
375	1	19.263300	16.320400	30.564200
376	1	27.982100	1.511320	27.580700
377	1	5.749840	18.775500	13.768000
378	1	7.331400	2.407710	11.416200
379	1	3.110570	0.427156	21.356400
380	1	11.813800	4.903350	30.939900
381	1	16.833600	27.203300	9.749330
382	1	5.563910	15.175300	7.956200
383	1	3.342370	28.778000	19.972500
384	1	20.624200	6.591120	22.209600
385	1	30.636800	24.237700	21.030400
386	1	25.667600	28.817800	11.751700
387	1	15.171400	5.225260	19.418600
388	1	22.559300	25.956500	24.116700
389	1	6.814070	30.376200	13.074300
390	1	29.337300	4.902090	9.019860
391	1	18.052900	23.195600	8.784200
392	1	21.275600	8.014370	26.151200
393	1	14.031600	25.678300	19.876400
394	1	27.515600	24.869900	15.219400
395	1	16.723600	1.308930	19.119300
396	1	21.024000	5.150360	11.682400
397	1	4.194140	27.366300	11.893500
398	1	6.459400	3.920080	16.016600
399	1	20.744800	4.583570	25.699000
400	1	21.107800	29.277000	12.816400
401	1	23.034700	11.744500	13.026900
402	1	29.927700	30.024600	12.321800
403	1	18.258700	12.578000	10.036700
404	1	13.747200	2.997050	15.605800
405	1	21.725000	28.370400	7.721040
406	1	16.000200	16.441200	1.773750
407	1	3.587790	13.854600	25.635700
408	1	17.458100	3.909800	13.272200
409	1	26.833500	11.157800	30.791100
410	1	9.402550	4.665070	31.994300
411	1	8.293670	17.567600	19.877300
412	1	4.521580	16.959000	12.567000
413	1	16.452200	2.747510	30.460500
414	1	10.649300	23.934800	4.869700
415	1	0.563637	15.414600	2.905300
416	1	20.952400	25.715900	11.228500
417	1	24.095000	11.888400	16.478200
418	1	7.854980	19.801000	8.669550
419	1	15.289100	7.552600	18.423700
420	1	22.827500	14.374500	24.803400
421	1	14.651100	25.127100	1.516450
422	1	9.677350	31.159500	26.708600
423	1	24.635200	14.478100	17.123600
424	1	31.373300	7.428480	17.419600
425	1	28.154000	28.445500	11.008000
426	1	23.918700	30.525800	25.706800
427	1	27.660400	12.261800	14.191000
428	1	22.949000	28.540200	26.819800
429	1	18.631500	13.132200	29.686400
430	1	30.536800	16.796700	1.786420
431	1	30.660900	19.478700	4.889310
432	1	31.755400	21.993600	8.336750
433	1	23.718900	31.899000	30.078400
434	1	21.699300	15.052000	10.323500
435	1	4.964950	13.111200	30.879500
436	1	29.378500	24.771500	24.398800
437	1	30.456400	12.538500	0.330511
438	1	15.238700	19.109700	8.508710
439	1	25.341900	9.363610	19.865000
440	1	11.613300	5.716240	21.344900
441	1	30.344000	9.669580	29.594500
442	1	24.948900	16.395600	6.065440
443	1	4.487040	25.874700	25.776500
444	1	31.116800	17.964000	26.310400
445	1	31.604000	19.634900	9.109270
446	1	13.629100	24.574700	7.901220
447	1	22.166000	19.307500	31.991800
448	1	19.938400	2.168410	21.971900
449	1	25.513300	23.528300	16.073500
450	1	5.123630	4.452640	12.002100
451	1	2.503540	19.650100	15.932100
452	1	23.512900	20.718700	19.212000
453	1	23.971000	19.707100	11.079300
454	1	12.354300	14.828100	30.074700
455	1	30.457300	2.647180	9.113230
456	1	12.730000	4.197120	19.483500
457	1	13.846200	8.317530	0.634992
458	1	8.272130	6.553920	3.517400
459	1	11.165700	17.912400	13.602000
460	1	32.000000	21.421000	10.818200
461	1	15.914700	31.766200	20.882800
462	1	11.856300	22.532800	3.430480
463	1	2.771040	24.627400	18.077500
464	1	29.524000	20.309500	16.923100
465	1	26.056900	27.247700	7.341160
466	1	12.744100	17.667200	30.063400
467	1	4.538480	29.736100	17.801600
468	1	2.727160	4.864400	25.167800
469	1	19.620900	19.408300	27.370000
470	1	15.430400	3.998810	9.575950
471	1	28.600900	7.416640	9.174650
472	1	27.091400	10.085400	18.267900
473	1	2.408030	5.770690	29.473300
474	1	27.426900	22.470900	7.864110
475	1	17.638300	11.030400	22.357300
476	1	29.532700	30.342700	9.773730
477	1	3.368090	11.973200	5.525310
478	1	20.506000	25.904900	28.581800
479	1	9.125900	21.271600	17.875000
480	1	17.427400	25.819300	19.286300
481	1	14.790400	10.595300	22.061600
482	1	13.071800	3.664710	3.018150
483	1	29.861100	16.784400	12.863400
484	1	24.318200	7.611420	7.240980
485	1	32.041200	28.511100	12.877900
486	1	16.860100	19.906000	18.432200
487	1	6.982630	21.461300	10.600100
488	1	4.992450	23.941300	23.973700
489	1	30.917900	23.171900	1.776890
490	1	28.476000	17.130600	10.744000
491	1	10.677000	12.586300	4.090820
492	1	2.672070	19.927100	28.381900
493	1	4.104930	26.564900	20.787800
494	1	23.346800	8.431410	19.104000
495	1	6.926040	30.852900	8.864690
496	1	5.196750	10.649300	30.847600
497	1	9.629700	2.397510	2.742620
498	1	12.518900	9.798020	12.436600
499	1	10.776100	22.278100	14.391100
500	1	11.989900	23.096700	12.672100
501	1	21.015800	31.911100	12.270100
502	1	4.198510	3.237320	21.492700
503	1	17.404200	16.493700	11.899800
504	1	11.271600	15.000700	5.090490
505	1	29.509600	15.848800	8.782570
506	1	1.696450	13.178100	8.898050
507	1	10.359300	27.372000	16.356700
508	1	2.139360	25.023900	29.975900
509	1	5.789870	18.100300	22.484600
510	1	20.064700	11.611100	17.628500
511	1	4.204950	23.164300	19.530500
512	1	19.601700	6.308560	6.694740
513	1	14.638400	6.622000	11.475000
514	1	16.507200	5.414160	17.413500
515	1	23.520100	19.730600	2.475600
516	1	12.189000	12.224700	13.345300
517	1	26.727000	22.270500	31.449200
518	1	5.433500	31.728600	26.288400
519	1	30.477200	8.450810	32.090900
520	1	20.847200	4.232820	23.345800
521	1	7.044770	20.548500	26.188400
522	1	27.835600	21.696500	18.385300
523	1	3.344130	9.297510	22.942700
524	1	15.350700	6.575300	31.127900
525	1	3.851680	9.761930	27.722700
526	1	23.208300	9.450880	6.796280
527	1	31.560800	26.518100	20.757000
528	1	23.929100	2.548120	29.528100
529	1	17.160900	3.727310	19.264900
530	1	28.794600	5.183320	2.618810
531	1	28.891200	28.033600	27.026300
532	1	2.216010	13.731300	1.926730
533	1	26.262900	9.087370	8.354060
534	1	3.195640	31.515700	27.432000
535	1	6.066460	23.418800	15.082800
536	1	26.944100	28.536200	23.071000
537	1	19.843700	7.553230	1.434750
538	1	23.623800	27.632000	15.958500
539	1	17.250900	10.037400	4.130500
540	1	31.857000	8.759330	25.690900
541	1	3.664370	28.104900	24.660400
542	1	29.495100	7.435500	15.600300
543	1	15.065700	20.349000	28.742500
544	1	24.161400	22.927200	31.240300
545	1	27.427400	19.371200	10.523600
546	1	1.534980	20.418600	1.135710
547	1	2.661580	22.966100	22.948700
548	1	25.198500	18.638800	19.619200
549	1	21.022000	12.039000	28.216500
550	1	16.381300	24.810800	16.058900
551	1	8.524210	18.738100	30.634000
552	1	26.254400	21.074100	20.123900
553	1	5.618570	13.925700	21.462600
554	1	6.652800	7.970160	17.781000
555	1	6.910310	2.516370	3.150890
556	1	29.836100	19.684300	27.841800
557	1	6.279830	8.989130	23.913500
558	1	2.694200	8.566900	25.733800
559	1	10.045300	31.506800	17.086900
560	1	20.374300	14.323100	19.888700
561	1	25.659400	30.996900	3.987840
562	1	4.922110	30.809900	19.977900
563	1	1.903810	26.580700	4.930940
564	1	27.319700	29.021300	6.287740
565	1	13.376300	15.974100	2.106640
566	1	9.203840	26.605700	2.591460
567	1	30.894900	13.798300	4.645340
568	1	12.262300	30.237600	13.292700
569	1	5.811950	27.800500	32.100000
570	1	24.970700	10.055700	27.237000
571	1	31.089400	21.530000	29.374500
572	1	29.378900	17.627900	17.025500
573	1	22.628600	15.089200	20.409000
574	1	10.629300	0.962039	28.628600
575	1	29.428000	26.258600	16.804700
576	1	22.651200	20.345300	16.583500
577	1	13.065800	20.119100	7.147060
578	1	17.427500	25.449500	8.096860
579	1	27.989200	2.978080	10.091200
580	1	2.916320	31.540800	10.849000
581	1	21.619400	18.729200	11.833200
582	1	15.454600	1.190350	6.470610
583	1	25.152100	23.358500	8.519270
584	1	27.616900	21.042700	25.233100
585	1	1.257500	2.949250	7.939700
586	1	0.853832	5.336760	11.652300
587	1	29.670400	27.414500	12.786400
588	1	6.271440	6.609680	12.597200
589	1	14.098100	2.272390	31.448300
590	1	4.730190	20.991900	14.563900
591	1	31.128000	3.198720	32.087700
592	1	20.058500	10.681200	26.185400
593	1	30.561100	5.779410	4.890730
594	1	21.870100	0.698144	9.949330
595	1	0.963457	3.219610	26.194100
596	1	3.669470	11.808100	0.942587
597	1	3.626090	14.512800	9.453250
598	1	26.179500	25.709700	19.500500
599	1	7.363350	30.157200	27.012500
600	1	23.015900	21.819300	1.476220
601	1	17.915000	6.526430	22.271000
602	1	4.258430	16.196900	21.780200
603	1	19.938800	3.236560	16.056800
604	1	2.543670	9.069040	10.192100
605	1	27.386100	15.640800	12.569400
606	1	14.749100	13.472100	30.606400
607	1	10.235000	4.190150	26.656500
608	1	26.422200	18.940000	5.760690
609	1	9.720520	9.598000	0.847793
610	1	25.600700	8.819730	14.309700
611	1	6.344940	32.029500	10.983800
612	1	23.300900	17.430300	1.712570
613	1	22.394800	12.586900	20.624300
614	1	21.693900	29.069500	15.316300
615	1	13.197200	16.593600	19.081500
616	1	11.928200	31.465800	22.008800
617	1	30.155600	12.965400	24.816100
618	1	23.815600	11.202200	4.918200
619	1	17.793600	22.726700	15.298400
620	1	22.233400	6.475030	8.324700
621	1	4.594440	31.724100	8.697550
622	1	20.221300	4.093210	13.765700
623	1	21.465600	15.379300	5.204670
624	1	5.973610	6.409360	1.911780
625	1	2.362140	17.398200	6.162760
626	1	26.233500	13.496600	27.341300
627	1	8.190680	22.584900	1.026950
628	1	23.724700	25.542600	4.069750
629	1	24.173100	19.961300	4.757870
630	1	31.319500	11.879800	9.377190
631	1	30.903000	16.021000	15.317400
632	1	28.623300	8.708630	6.955260
633	1	21.197800	21.082500	28.527800
634	1	17.761000	10.334400	8.414040
635	1	12.163100	15.165300	20.809600
636	1	20.501200	15.160500	25.390300
637	1	14.956300	9.161530	7.735870
638	1	7.025660	28.362700	9.205600
639	1	18.038000	6.079510	2.588260
640	1	24.589800	16.993500	8.622510
641	1	6.406520	0.514388	30.570900
642	1	10.503300	8.213700	13.017600
643	1	8.777920	31.530800	7.229340
644	1	8.067430	11.738700	20.526000
645	1	14.206500	11.691800	26.296200
646	1	22.536900	21.699100	23.358500
647	1	14.266200	22.570100	11.885000
648	1	2.116580	18.359100	26.578500
649	1	5.690070	16.479000	28.319700
650	1	27.062900	6.048580	0.532986
651	1	23.709000	8.669350	4.281090
652	1	4.414280	16.287500	17.312900
653	1	21.986700	29.287700	17.871600
654	1	22.349700	19.313900	27.122900
655	1	16.383900	21.336100	24.606600
656	1	4.662230	23.702200	1.540820
657	1	25.993800	17.327100	14.174200
658	1	16.631900	14.128000	14.093600
659	1	1.549120	11.855100	16.336000
660	1	26.609300	4.399560	5.564630
661	1	31.072200	14.279500	22.709400
662	1	3.551130	30.576500	6.114120
663	1	16.216100	16.679700	26.759600
664	1	18.114900	26.456400	5.981080
665	1	2.817060	20.297100	3.445310
666	1	3.833400	13.433900	23.126500
667	1	1.726290	1.534080	5.860640
668	1	9.646610	30.392200	22.519700
669	1	11.409600	22.378100	19.309600
670	1	9.844280	13.355000	14.009100
671	1	17.120100	29.736200	29.555700
672	1	29.336600	12.395500	16.034600
673	1	26.881500	0.729535	9.342790
674	1	27.794500	5.800290	20.299800
675	1	21.767200	23.650500	32.128200
676	1	14.081500	28.379500	12.671100
677	1	5.348080	30.966100	28.820400
678	1	14.993200	18.827300	30.860700
679	1	26.677200	7.593850	18.290100
680	1	14.622200	17.623300	25.042000
681	1	8.834990	8.346690	19.195800
682	1	2.881880	29.046700	4.150170
683	1	30.441800	5.067340	26.701800
684	1	3.492950	16.987200	15.011400
685	1	17.272800	29.849400	22.418300
686	1	8.784720	0.351399	12.549000
687	1	31.961100	1.055180	18.451100
688	1	21.291400	23.228100	2.897010
689	1	18.537000	12.547900	12.550600
690	1	13.264900	0.755282	14.581100
691	1	30.707900	6.502580	10.505200
692	1	24.100000	22.112300	12.098600
693	1	31.491000	13.570600	17.056500
694	1	15.301700	31.792500	26.269600
695	1	10.799900	22.784500	16.791700
696	1	5.772940	30.680400	15.544400
697	1	0.376143	17.700600	12.787300
698	1	22.849500	30.136800	23.340000
699	1	9.237890	29.725500	8.858090
700	1	6.567510	20.157600	23.607600
701	1	27.617600	30.794400	11.599700
702	1	12.350300	17.086400	4.097510
703	1	21.512000	4.204540	6.917490
704	1	30.040100	17.703000	23.612200
705	1	16.786500	10.867400	11.222200
706	1	22.752200	31.063300	14.042700
707	1	25.253500	27.068700	27.034000
708	1	3.318240	29.579800	29.296600
709	1	1.207050	19.305500	21.352100
710	1	5.821760	14.282900	26.792100
711	1	3.960840	24.322700	28.030000
712	1	20.052100	30.973200	14.421100
713	1	3.904390	2.458040	8.269570
714	1	0.504373	21.695900	24.278500
715	1	1.624720	23.142500	9.813170
716	1	5.263450	28.078100	29.715800
717	1	23.661400	25.478100	19.912300
718	1	5.592560	6.151160	10.123300
719	1	21.714600	20.706100	3.810810
720	1	6.830510	21.120200	5.048900
721	1	18.259700	24.410000	27.857700
722	1	9.882740	15.362800	7.200480
723	1	4.883510	16.823100	5.930810
724	1	18.477400	21.371800	17.239100
725	1	2.558170	8.011170	14.519400
726	1	21.280000	24.329400	15.903600
727	1	7.731910	31.045500	0.495424
728	1	14.231600	29.461100	26.596000
729	1	31.168000	30.564400	19.123600
730	1	30.182100	9.055810	13.760400
731	1	28.859400	18.088700	21.288800
732	1	1.468420	15.465600	15.924200
733	1	24.815500	2.894280	22.537700
734	1	6.709230	27.851000	11.864200
735	1	22.285500	10.390200	17.222300
736	1	26.595800	1.205460	11.908800
737	1	26.783300	8.350720	10.815100
738	1	11.954900	22.123000	8.343940
739	1	25.977300	10.637800	10.411100
740	1	16.874000	2.792500	4.625410
741	1	11.747900	16.345600	32.011200
742	1	25.103500	5.289700	22.996400
743	1	31.423100	29.047800	26.679700
744	1	4.902940	5.749540	21.523300
745	1	7.369170	16.030000	6.653530
746	1	19.857100	17.068700	15.779600
747	1	27.944200	13.912200	19.731300
748	1	15.534000	20.855800	6.636250
749	1	8.557370	22.727700	6.014850
750	1	10.044600	11.808100	22.441500
751	1	12.021900	29.515300	31.532900
752	1	16.415300	7.563140	3.939630
753	1	27.210100	26.227300	1.598980
754	1	11.005600	4.216040	17.292600
755	1	28.934800	0.526482	8.213850
756	1	21.796000	27.848900	10.858500
757	1	0.503292	3.824920	5.317410
758	1	18.705300	12.661600	27.125100
759	1	5.988560	22.827300	31.459000
760	1	12.169300	24.814400	24.494600
761	1	2.654050	20.631500	23.167900
762	1	3.369200	18.295100	1.729480
763	1	28.280500	27.142300	14.862600
764	1	10.141700	27.341300	13.728300
765	1	30.209900	11.489300	13.814000
766	1	27.169000	13.842700	2.161920
767	1	11.674500	29.284000	20.937500
768	1	12.617000	30.818200	16.133200
769	1	15.372800	21.275500	31.284400
770	1	10.961400	4.774360	24.270600
771	1	14.688800	26.510400	31.162300
772	1	28.393200	7.735790	1.515100
773	1	31.262800	0.353256	8.815070
774	1	6.672810	22.083500	7.950440
775	1	31.382900	22.145100	5.853190
776	1	29.870500	2.852540	2.229360
777	1	25.181200	12.098000	29.244900
778	1	8.470060	23.573200	14.269300
779	1	17.759300	29.620600	14.145300
780	1	12.578400	25.200600	31.954900
781	1	21.276900	14.809700	15.633600
782	1	18.951500	0.356868	23.409100
783	1	1.246650	3.403120	17.609400
784	1	17.652400	3.745970	2.615800
785	1	15.762600	4.446070	15.277300
786	1	10.078800	27.881900	22.412600
787	1	10.968000	26.941500	24.755800
788	1	26.325500	27.086700	9.999180
789	1	12.994000	13.083000	15.832900
790	1	17.100900	17.247900	31.308100
791	1	17.418000	8.159780	17.041600
792	1	26.490400	11.563400	1.475060
793	1	5.637970	25.011700	3.773410
794	1	23.121100	27.969000	3.941150
795	1	21.492900	28.078800	24.759000
796	1	24.392100	26.629700	2.014550
797	1	23.662100	8.624640	1.625040
798	1	14.446500	31.970700	12.332900
799	1	1.627670	18.153200	8.681910
800	1	12.913700	21.686800	17.368900
801	1	27.423900	15.764800	26.909700
802	1	23.527100	21.360700	8.937370
803	1	23.771000	31.869000	5.757970
804	1	19.946900	17.256100	4.237070
805	1	9.045040	18.293800	25.328000
806	1	31.798900	27.704000	1.264900
807	1	0.349736	5.266930	21.421100
808	1	2.867820	12.167400	13.290500
809	1	28.359300	14.362100	4.380610
810	1	15.336500	24.972600	5.523180
811	1	1.337310	8.166900	7.323740
812	1	26.465300	1.155980	23.139700
813	1	27.951500	30.901800	23.945300
814	1	13.265500	4.157790	8.254520
815	1	20.410800	16.317500	21.383000
816	1	30.063300	22.248400	12.038200
817	1	14.211900	7.487410	24.993300
818	1	8.667750	3.317910	9.340400
819	1	10.178600	13.563200	20.619000
820	1	6.465370	9.589800	19.814500
821	1	10.005700	20.282500	13.277800
822	1	16.302300	11.686700	13.584800
823	1	27.446500	16.632700	5.241170
824	1	28.837400	18.399000	6.259390
825	1	21.853100	31.414100	16.355900
826	1	10.478000	25.413500	22.297300
827	1	24.919200	15.485500	23.908700
828	1	31.951900	23.576800	26.094200
829	1	13.003100	11.178700	3.675380
830	1	25.361600	30.658500	23.716700
831	1	24.687800	29.144600	21.657000
832	1	15.555800	27.408800	20.732600
833	1	29.706000	1.101350	0.429177
834	1	25.414500	22.305300	1.797180
835	1	26.451500	14.030400	22.197100
836	1	13.277900	6.786430	19.765900
837	1	31.769500	1.697220	24.162700
838	1	30.960900	31.197600	31.011200
839	1	4.191850	1.030330	6.136930
840	1	15.754400	30.727600	1.778570
841	1	29.152400	26.175900	19.353700
842	1	17.127700	13.122400	18.502700
843	1	17.411900	28.213600	7.544190
844	1	6.679110	17.531400	8.658100
845	1	9.356800	12.883400	18.347800
846	1	30.679900	19.701200	22.317100
847	1	19.347000	18.785100	31.988000
848	1	8.659100	10.017500	28.425400
849	1	10.923600	18.725900	11.328000
850	1	27.336800	5.270610	29.982000
851	1	16.272700	9.698450	28.402400
852	1	9.298010	25.769100	28.795200
853	1	6.728900	2.804280	18.308700