# LAMMPS data file written by OVITO
10000 atoms
2 atom types
-27.1327 27.1327 xlo xhi
-27.1327 27.1327 ylo yhi
-27.1327 27.1327 zlo zhi

Atoms # atomic

1 2 9.9969890496 11.093747049 -2.7551086234
2 2 0.680759443 -13.7474879052 25.6950467578
3 2 11.979629704 13.471656877 -8.1589656862
4 2 15.7737036758 10.9925963434 -2.3332494038
5 2 -19.0206738848 13.8072341106 17.7775078362
6 2 11.4031140944 -13.3237293966 10.2098722138
7 2 -20.9001017484 7.9200893954 -15.4714453978
8 2 24.6985712176 20.4820411068 -23.4599743157
9 2 -11.9792498462 5.3892054048 0.5623523402
10 2 8.968171331 -8.9633417104 -22.630701326
11 2 -11.8969292344 -0.5932293528 1.9132894732
12 2 -7.2041117078 -16.8961292094 -10.625707974
13 2 -13.2696810582 18.7707817178 11.6394399114
14 2 18.3183168126 16.362103408 17.123175643
15 2 -25.88602298 26.0969363102 -19.0172008992
16 2 26.0617180656 -24.9642220568 -26.611008724
17 2 0.1233995196 -7.7359668932 -17.828083189
18 2 -23.047671233 21.7097957818 16.716727797
19 2 -18.793735982 15.8366515398 -2.940913353
20 2 10.4184684114 15.097990915 24.3375435114
21 2 2.6779432246 20.3673783166 -5.8623996928
22 2 6.7909892176 -12.3986128574 21.0944261458
23 2 -22.7056526964 -20.06463165 19.7377911458
24 2 8.487922541 -19.6181902042 26.2292896208
25 2 -25.5170508193 9.7558878774 25.6101214068
26 2 -27.0649680983 21.4122043282 10.873158198
27 2 12.1441623968 -3.3667339468 -23.6782785933
28 2 16.5748780414 2.1458709776 -0.5013037652
29 2 2.8178936912 12.489995791 -16.0372707236
30 2 17.5272358114 21.3961960352 -16.2943801888
31 2 23.4427070654 14.9926075082 -16.1140019992
32 2 -21.4883386844 10.8174818976 9.3489516428
33 2 -13.7905203674 4.7035620758 13.8104357692
34 2 26.7545244274 7.8667465072 -0.0677774846
35 2 15.2372901968 -9.6653189248 -3.8279355814
36 2 7.410754351 9.944677204 19.260418422
37 2 -16.5453033984 -18.3557056732 -15.8361088858
38 2 3.3885486376 20.2874996478 15.0208255162
39 2 10.3035885596 15.6222489444 -1.5783634244
40 2 -18.4477397916 -6.4595361544 22.111793865
41 2 -14.2333260314 -3.188363577 -2.7434958278
42 2 22.83759359 2.0350067654 -2.4227330484
43 2 -6.9068458466 7.0631301986 1.0511750634
44 2 -16.3328543574 -3.5722370166 -26.9570819713
45 2 13.95434761 -5.1133201112 17.2321948316
46 2 9.5131044778 2.4523619568 23.6905914126
47 2 -12.3039739998 6.9499868396 24.9232299736
48 2 -1.6180856972 14.0111634838 -21.143427802
49 2 -20.5629508182 -14.8921079874 16.7293716352
50 2 -13.1402580792 18.8856615696 2.057201314
51 2 3.777957148 15.7309425406 1.8744897122
52 2 -10.5447982626 -16.2585107594 0.3272746274
53 2 -2.2790382692 16.977744371 8.5143497908
54 2 -10.2101435408 1.9597406556 -23.6795755364
55 2 -5.375530524 -25.1030112438 16.6763543394
56 2 14.2436364574 -21.54879034 -21.8126449944
57 2 -1.2590115454 -7.1716609986 19.2179828792
58 2 -2.2624330568 26.9610585398 -8.4867829676
59 2 14.3240577802 20.6228055544 14.161641438
60 2 -26.8880628943 -9.3868831574 11.869470942
61 2 10.0136485274 17.4549000332 -4.209638405
62 2 -20.7523370642 18.3570623082 19.6514548944
63 2 20.7382280602 -18.6604601596 -18.6424983122
64 2 21.2548889336 -3.6218898576 -23.1028645714
65 2 -18.7705646562 -15.6817780882 0.8483309982
66 2 25.2335195308 4.0149341498 0.6209047068
67 2 24.5329532168 -15.4160946898 7.4377785202
68 2 -8.4400061928 -12.1561007848 -14.8681226806
69 2 26.2857256368 -10.6858340372 -1.229925291
70 2 -18.0093838904 -4.2534848482 9.866806355
71 2 -10.0774103724 -0.1571525984 6.9403275984
72 2 -15.7992626792 24.6317705102 -1.2515771856
73 2 -25.5082218387 -18.0977279616 12.3256258944
74 2 -13.75085236 -19.3607551466 7.0492382562
75 2 -4.1340467028 18.1529701388 17.7440260844
76 2 4.5678985758 11.1977738208 16.4844176196
77 2 -5.7501245802 10.3924752848 -19.0569774374
78 2 -19.226502547 17.538305953 13.3991040372
79 2 23.703398047 -12.5166401024 26.2045445984
80 2 -17.4662415018 0.035001183 -1.5542695868
81 2 25.6907055258 2.0078740654 20.4037904
82 2 -17.7997566502 6.027800632 -22.9645203606
83 2 -7.4043510338 16.4697116962 3.8273929274
84 2 17.4416050102 -13.6413447828 -9.5285158514
85 2 22.7471874336 -1.4424285974 -11.619850102
86 2 4.5337656392 4.965826754 -21.36428798
87 2 25.5333358658 2.1680112608 -11.9650323114
88 2 -23.912732254 -9.7076459368 -12.6206126088
89 2 -5.3930582482 0.046668244 -8.0021386802
90 2 5.1689964116 12.1504571832 -12.2378244772
91 2 -21.8991820278 13.4774090094 3.9018450562
92 2 -17.8284087814 23.3418276868 -15.7379970426
93 2 9.5351904956 -7.4488486618 21.668716874
94 2 6.7631510674 23.5823319396 -12.27212021
95 2 -17.1633863044 15.932050113 22.9489461908
96 2 -17.9448080644 -6.3606645956 24.5229683832
97 2 3.9239853394 7.290285163 23.8503487502
98 2 -6.038111058 -5.5069070574 11.0350318862
99 2 -25.7340852866 -17.9705841294 3.4182318114
100 2 20.7924934602 0.3404611196 -25.9268631201
101 2 -26.659193686 4.2187007268 25.0585678812
102 2 -0.1440203716 -24.1949557464 -3.258094616
103 2 3.2482725786 -8.7926770274 -15.0926186404
104 2 -0.9428070596 -6.5402830696 -9.0247701432
105 2 -11.6992946476 -7.1777387234 -19.1508565794
106 2 -26.5143077812 17.2662192374 10.9248188588
107 2 -20.7549960688 21.577822329 17.053444604
108 2 -2.516015271 -19.3011717374 6.6983581798
109 2 -21.5665351258 -16.9927758868 2.5646370694
110 2 -26.672802363 3.523181095 -22.3962639449
111 2 21.3983666512 -26.6870714499 -5.2822483014
112 2 26.9497170712 -21.5880784896 -21.5691941304
113 2 6.9590491614 4.9805326774 14.3962850276
114 2 -19.0022236488 15.4166373438 -16.9520225714
115 2 -24.7023480894 -25.3608912777 -0.0555677696
116 2 -10.8646385302 -3.8326566712 -0.761343562
117 2 23.443466781 -16.637228986 13.3970962174
118 2 13.079589362 6.5387636384 26.915095746
119 2 11.5240174056 -25.3476885059 24.7132228756
120 2 25.2126816172 -22.1802225344 10.862847772
121 2 -3.0590491288 -9.0624303308 -22.713456061
122 2 4.6119620806 -1.9533916038 -14.9453423448
123 2 21.309751253 -18.4324912142 -11.0224423134
124 2 22.5192184882 11.541707926 -13.7244251102
125 2 -1.1603570482 -4.914003297 -5.1209172672
126 2 4.7771459582 -25.0714396341 -22.1430995743
127 2 -27.1318390794 9.9852134578 -26.6454292672
128 2 -25.4651025518 18.5138350488 6.4246435022
129 2 -7.0283460772 23.5228570612 -2.3658086438
130 2 16.1292505766 -24.2431271419 -26.4773096315
131 2 -0.4401466594 -6.443202269 10.4216158046
132 2 9.6399227176 -5.2605964068 -2.6755012816
133 2 1.004181227 5.9073857094 7.6967872744
134 2 20.6150456022 -4.087541255 -11.1276086586
135 2 12.0699273296 -9.6947307716 24.549124306
136 2 -20.8322699984 7.5063699858 -3.6396889088
137 2 -19.9039518006 3.834121837 -9.092439097
138 2 9.4632888406 3.989049554 -15.574441127
139 2 20.789346067 -10.2562148654 7.531494866
140 2 25.0460868392 11.8404932184 3.5916097644
141 2 -5.0777762742 20.5026619588 2.3301020106
142 2 -0.3306390822 19.585739495 -11.5893529472
143 2 -11.842880896 -2.6811448832 -2.5969249824
144 2 23.4530717568 -2.767264073 10.0708985244
145 2 5.3233814746 -6.1291141338 -18.8782272098
146 2 -15.9980911048 -11.7007598134 15.261329769
147 2 -9.3519362398 -15.4706314168 -11.3614382672
148 2 5.2780156002 -24.2544957432 -13.9352461892
149 2 12.8491784736 -18.8698160728 18.4403054318
150 2 7.0757197714 20.3122446702 -14.7625222122
151 2 -14.7008224524 -25.8206603057 0.8289582504
152 2 5.2936440354 19.5787935238 1.6909641294
153 2 24.1726309608 -19.6241051328 2.0684342518
154 2 -6.149626455 0.7496222356 -3.647720188
155 2 -5.7342790834 19.043085495 -18.6750575522
156 2 -16.7681171308 -6.7191960934 -20.2846235816
157 2 3.9728784648 11.0330240664 25.4432010364
158 2 21.4034133334 3.2805062262 23.2463748482
159 2 25.2901726084 2.094373113 17.991964697
160 2 13.9940156174 -7.8450403472 1.0589350156
161 2 13.8389793696 -23.8222067138 -23.0315327031
162 2 1.97797383 -15.3777833174 -8.032635835
163 2 -7.5571081348 24.1832127138 0.0581182434
164 2 -24.2216488966 -9.9275293376 12.3986671228
165 2 -11.1499660034 -14.283467261 -3.975754531
166 2 -19.9182778662 -9.4580793622 -22.1977502586
167 2 -5.0500466548 16.4819756766 0.0600717978
168 2 -5.1879350362 12.1412863306 22.4901864992
169 2 26.412326815 -24.4941100435 -16.4056242588
170 2 -1.9806871 21.7653635514 6.588633541
171 2 -3.0023960512 20.7015989152 21.199863818
172 2 -6.231567209 14.1720603948 21.4454690184
173 2 -26.1153702666 2.8382974816 20.1111370978
174 2 20.7787100486 -25.8621407775 -19.4565335776
175 2 -21.0592621666 13.6597407534 1.6553117616
176 2 20.7056688202 -4.3514338952 16.845879449
177 2 2.8012884788 20.4994603002 1.1509148686
178 2 -11.6329823288 -26.5278524251 -6.3284852134
179 2 20.9455761536 -25.6848557157 1.1037039706
180 2 -12.2030946212 1.362604194 -1.7459349796
181 2 25.51830435 19.837802278 3.7230948286
182 2 10.4566169876 24.8616387446 -21.3882732868
183 2 0.5416772228 -20.2875539132 24.9331605418
184 2 -16.4001434534 -0.2679082798 3.0001169044
185 2 19.1704463888 -4.0582922044 8.8850367382
186 2 12.9886405516 11.454611959 1.1898231604
187 2 22.875308043 -3.4398294406 -18.3676983266
188 2 13.6498101852 -3.7945623604 -0.829175312
189 2 19.6958439916 17.341322551 -23.8936037005
190 2 -15.6100392294 -3.3922386848 -7.145396545
191 2 23.9040172308 8.1589656862 -9.4381639604
192 2 20.400534476 12.731748148 10.5612949442
193 2 -19.3793139134 1.9449262014 1.5784176898
194 2 -10.9810920786 -23.2849032822 -23.7778935881
195 2 -13.7245879064 26.4389711264 -10.3713660442
196 2 10.9557501368 -9.8844968754 -2.8655387124
197 2 20.3794795008 -15.266484982 20.6667605284
198 2 7.951509062 10.8950271542 -7.2448650232
199 2 16.5914832538 -12.119363109 26.253871847
200 2 -26.2280306635 20.2636771372 25.1516330422
201 2 10.5125103496 -4.8740639626 21.7573322722
202 2 -12.6844287192 -17.2092948328 -13.7499841136
203 2 -24.4341576296 20.811866208 -14.6871475716
204 2 -8.528621591 -3.7150635494 15.4244515614
205 2 9.5883705876 -26.9197012505 -23.6632742102
206 2 -8.6169656622 -22.2504148293 -0.5846011542
207 2 17.436287001 18.5778682208 17.301708809
208 2 11.1095382804 -16.8395303972 -4.626396677
209 2 -7.740145329 16.302140141 9.7405850346
210 2 9.7894238946 4.2074135236 5.2758992496
211 2 -1.3520767064 -0.1313765334 8.62277206
212 2 2.5595903872 4.6040935976 -23.7684134227
213 2 3.4714661688 2.796296062 -22.1030354294
214 2 -22.3926552958 11.0245043986 -13.3176516718
215 2 -11.0578233542 -2.7405112308 23.7562525466
216 2 24.4612686234 17.6539997858 25.1467491562
217 2 18.9491520876 -10.9341525076 9.3432537758
218 2 6.4226356824 -13.3607926648 -2.4211593518
219 2 0.2193950122 -14.6008655856 5.8767257584
220 2 -25.0580469334 5.9691397346 5.4123767306
221 2 -5.7843117822 -11.7648472508 -4.8027049616
222 2 -20.4576759422 2.7445811358 21.1469007876
223 2 -16.6338645312 10.856607251 4.7161516486
224 2 16.5804673776 -20.9696699912 -21.523285602
225 2 21.1859176102 -17.281087957 5.5940572898
226 2 -20.4958245184 -3.2059455666 -14.8444629662
227 2 -18.8573350308 -18.6791817226 -23.3030550585
228 2 -20.3719366102 9.8526430856 26.8874746574
229 2 -3.394572097 -16.168918584 -22.5466876337
230 2 2.7776830298 -17.390432738 18.318642405
231 2 20.1852636342 -24.9717161085 21.7840851144
232 2 26.9892765478 1.751958439 25.6546190348
233 2 -18.5671236716 0.065932461 23.474940713
234 2 -10.3598617794 0.6182457022 18.2387094708
235 2 2.6647567324 -24.5735654422 15.3052304776
236 2 4.7078490424 -23.2203545889 16.1233899134
237 2 -8.7080772688 17.8456109132 5.4872629826
238 2 -6.8527432428 -22.7146444732 26.0492370236
239 2 -13.2200282172 7.1935299548 2.0348439692
240 2 24.0739764636 -3.4476436582 12.4603126172
241 2 -21.6987256402 -12.8143943522 -4.371349297
242 2 19.869004883 24.1627003926 12.0270033982
243 2 -25.2767744811 -15.065431675 -1.5314238534
244 2 -6.1797980174 -16.4730218856 -19.4792165148
245 2 -25.6723638206 -8.8456943232 1.7316631794
246 2 -18.5023850494 -8.543273249 -5.066760398
247 2 -17.8548902966 -13.6888812732 25.4942647778
248 2 15.2240494392 -18.3953194152 -26.803307394
249 2 18.2753928812 5.5149383366 14.1227331462
250 2 -6.7411735804 -6.0867328564 -12.3859690192
251 2 6.0334442336 -26.7107056596 9.8890009036
252 2 7.9312680678 18.6564987854 22.0232327322
253 2 -10.8441804744 -23.5418390981 -0.6695265052
254 2 -7.5430533962 -25.160424037 2.9546424992
255 2 20.2324202668 -8.306133451 5.7729703136
256 2 8.6761692136 -15.341371234 -15.9034522472
257 2 -8.7844286866 -17.6010910208 -12.7204609448
258 2 5.2486037534 -5.5764210348 -3.2919562256
259 2 -2.7745356366 12.5645564506 -16.461951744
260 2 -21.7948730759 15.1104176916 22.4967526126
261 2 20.2758325868 15.3350764476 -19.4717278896
262 2 -6.2179465936 4.3006957462 13.95163434
263 2 1.416869594 17.4237516936 18.0465556894
264 2 -12.7338102332 17.7002339066 -0.2440857692
265 2 3.9262102208 -11.5762749858 9.0295454984
266 2 7.7682005408 -6.6134870942 -1.8345503778
267 2 5.4244779148 -12.0788268552 18.7173302988
268 2 -4.794890744 13.9124004558 0.2901028284
269 2 -11.2857922996 -6.8533401622 21.50537802
270 2 -18.5074317316 -24.3989773707 24.707579274
271 2 24.8016212122 -7.0813091076 0.083568716
272 2 12.8860246802 -22.3559230465 -18.1030459708
273 2 -25.7232322066 18.5652243826 -6.164820767
274 2 2.0696280906 12.1894740058 -2.1091875672
275 2 8.1247242188 -18.1544353046 -9.2925156268
276 2 -19.778652992 22.9582255742 -1.1644269532
277 2 6.3709750216 4.7917976162 26.6682424414
278 2 16.8669344242 -16.9984737538 26.274221372
279 2 -5.9487359442 6.9639330474 -10.3300158094
280 2 -4.1050147138 -17.2549862996 19.8482755002
281 2 -20.8029666824 -0.2717611232 1.6413655538
282 2 4.382473704 11.4566197788 13.8204748682
283 2 -17.5005372346 -12.9011647268 -6.327888294
284 2 25.1634628994 -10.4603613002 -10.0484869142
285 2 4.7968442984 -7.7717820572 -21.0778751988
286 2 -14.1085698768 17.2439704234 6.759840878
287 2 -5.3555608568 8.660215186 -11.9757225952
288 2 4.9550822048 -6.799183293 11.2826991718
289 2 12.4422965044 -5.6841921192 0.4435653796
290 2 23.7761679484 4.1679625778 -1.4446534788
291 2 -1.9053667248 -18.2391978594 13.4177713348
292 2 6.6595041534 -15.0574546612 8.7505128116
293 2 26.0342055078 -2.0392394666 19.9667368684
294 2 16.6011967604 -8.4246490846 -2.1297541538
295 2 19.005913696 -12.5063296764 -20.768453888
296 2 0.4850241452 -11.6287496276 20.3412223938
297 2 -26.1494163785 14.8502150986 -10.6458947028
298 2 -11.7612657344 -11.3953541422 -26.3339892836
299 2 -11.8888436898 -13.9465333924 -17.1477578692
300 2 4.51488128 7.6923375116 -11.8369659674
301 2 13.4022514304 0.7365985396 12.2500341922
302 2 9.1162073422 14.6754805106 2.1735463316
303 2 -24.8154154769 3.8718905554 -3.9672348632
304 2 -15.214661525 -4.071261635 9.6696058914
305 2 12.8799469554 24.4863392382 4.5631232206
306 2 9.9053890544 13.918532446 -25.3416379138
307 2 -13.0303706442 14.088925802 22.265907601
308 2 -17.172828484 -16.6028247224 -11.6363467836
309 2 19.8577176798 -0.1680056784 23.28528314
310 2 -24.9499176973 10.338101354 -13.7761943018
311 2 -0.3259722578 -20.0919271462 -24.8190349791
312 2 -6.210946357 23.207140964 -7.9842310982
313 2 -24.8451529161 13.6044985762 -2.4189887358
314 2 8.5637313048 -22.1049618511 25.9191085944
315 2 1.0040184308 -16.2190598136 4.3497516678
316 2 18.767417263 4.2632526202 9.3284393216
317 2 -4.7220665772 3.0303427322 -11.2688072294
318 2 -11.3256773686 -17.144067822 -11.8263842144
319 2 26.4521033532 -13.8495068572 8.2402552554
320 2 -15.06950158 6.3724944528 -8.7621256072
321 2 -16.8595000644 0.6521615772 9.9044122772
322 2 -26.6403804144 -2.6316548384 15.4815387622
323 2 13.2232841412 -8.3395609374 -8.8897035626
324 2 10.220345436 8.1653690034 -15.627078565
325 2 -11.0502804636 -19.3020942492 -20.7044749814
326 2 17.6496585538 22.8814942986 1.8937539292
327 2 2.978899133 -26.9050327702 13.203585801
328 2 -25.6939505967 24.0723485016 11.0242330716
329 2 0.8247798146 -12.887218519 -0.3725862364
330 2 -9.8667520896 4.8495360018 -18.3557599386
331 2 13.1025436262 1.138216765 18.1973049706
332 2 24.6745316454 -15.6362494176 25.0857005812
333 2 21.6298628476 3.2678081226 20.9100323166
334 2 -7.388776864 -10.4799511096 18.3744815016
335 2 -13.2669677882 -8.9282319966 1.4453046636
336 2 8.5699718258 -19.7209688718 9.2209395642
337 2 5.0575895454 -16.961464751 9.839944982
338 2 -4.5683869644 -2.5225813844 -10.0398587156
339 2 12.6485592898 11.444030206 25.0488543746
340 2 -19.0755362042 -17.9207142268 -16.2370759264
341 2 -22.3161410818 14.8564013542 15.787704149
342 2 -0.5956712958 -10.6424217172 18.3413796076
343 2 11.2538842444 10.7699996726 7.5571081348
344 2 0.5474836206 -0.5051566086 -11.1228875688
345 2 -16.5975067132 -1.3130056184 -25.8929255389
346 2 24.0296958972 11.012891603 -9.4983985544
347 2 20.9717320764 -26.7298396396 20.1170520264
348 2 -14.1756961766 8.5309550032 26.1482171132
349 2 -7.4920981856 21.5689228034 -0.970536679
350 2 27.1298781992 10.4206932928 16.0599536608
351 2 12.534222092 5.7441553862 -18.1721800904
352 2 -25.9861263634 8.212254309 -11.9307365786
353 2 -5.0735978384 3.6936287164 -1.1618764794
354 2 -18.2959594678 15.6608859092 -26.3323341889
355 2 -5.6709513616 -16.6539427292 -15.5435641144
356 2 -21.1680100282 -1.4968025282 -22.0047065246
357 2 8.0254185368 -22.4174437305 9.7570274508
358 2 -25.7815946443 15.8461479848 -20.9572432146
359 2 0.1909599426 -0.319351879 -4.4759187228
360 2 26.606868274 -16.1676162144 -16.6430353838
361 2 10.9267181478 4.8824750996 -8.5667701672
362 2 -20.2753984636 -26.2949181956 3.132198888
363 2 -7.921663092 5.3442193882 17.9331410034
364 2 25.4490616996 -6.465451083 22.0320779924
365 2 -11.9504349188 -1.5446103456 7.4181344454
366 2 -5.9104788372 8.1656945958 5.4315324168
367 2 -5.2677051742 -20.4206669394 -10.9480987154
368 2 -15.1671250346 22.0812424448 16.8186382182
369 2 1.3183236276 -22.4964975652 1.7537491972
370 2 -24.0125860166 -25.5478572868 4.1505433844
371 2 22.978412303 13.8847793672 -6.517545867
372 2 11.157237567 22.9622412138 8.5956936254
373 2 10.976262458 -26.8456778184 -8.1012273006
374 2 2.0954041556 -12.5389974472 15.0372679324
375 2 0.6006094472 -21.4103050392 -3.00901643
376 2 -25.8652067726 -0.7613978274 -24.7494558832
377 2 -9.4390864722 -2.94661122 21.7961320332
378 2 -16.8764851346 15.4236918458 -18.7013220058
379 2 -9.1581544964 0.868789054 15.7867816372
380 2 22.776816342 -26.3216656112 18.5184476078
381 2 -3.0408702198 -17.6377201658 -13.8692051974
382 2 -3.2376908256 16.6767884626 -4.4399407626
383 2 6.9157453722 8.751381058 -26.4003558678
384 2 17.603153106 24.7803491754 21.1392493662
385 2 2.473688259 -2.4962084 15.4293354474
386 2 -26.76638196 -15.439591608 -11.305924763
387 2 0.53994073 3.78501165 19.854624552
388 2 14.6317968636 -22.5217038435 -2.1205290358
389 2 22.4725502442 -5.8539342904 18.4253824468
390 2 -24.9833831695 4.3495888716 2.9493787554
391 2 -13.2968680236 -0.0289234582 -0.0217604254
392 2 25.657223774 13.9501149088 9.263917761
393 2 -9.1945665798 -13.7831945384 13.6630509428
394 2 6.6352475196 7.254198672 -10.2856267122
395 2 -16.783202912 13.3932976394 8.4370758612
396 2 6.2322183938 -21.8069851132 17.161975404
397 2 -16.296170947 13.2036400664 -10.0086018452
398 2 -11.218286142 -11.8760913208 -16.073682807
399 2 5.731240221 5.8997885534 -5.9351695942
400 2 4.035175144 2.9860621658 3.476241524
401 2 3.2918476948 -25.6683210483 -19.8144138906
402 2 6.7186534394 -6.4108600906 9.208295726
403 2 2.9993029234 -4.966369408 8.0479386778
404 2 15.8409927718 -9.5575478404 -16.9872950814
405 2 27.0107656462 -15.3934117526 -0.163338854
406 2 16.6471052888 -20.8000906162 -6.9645299668
407 2 -3.102081591 25.4224716536 -10.0691077662
408 2 14.0115433416 -21.0893794636 -24.2047506511
409 2 -12.5879991034 -14.9859871294 -22.8629463849
410 2 -16.7965522004 -23.9661619669 18.0951774878
411 2 -15.230398491 -14.4032309988 -23.2668491836
412 2 -0.5542125302 26.8921957472 -10.281122684
413 2 11.2745050964 -19.2060444912 22.3117075986
414 2 14.6685888048 -11.1568034438 -26.9608067483
415 2 0.1751687112 -10.3498769458 10.5854430472
416 2 -17.148137727 24.117443049 -22.2976745662
417 2 -20.6560702446 -18.9636409494 7.8107988798
418 2 -3.7241258712 -25.0093437369 -8.5855459956
419 2 12.1366737716 10.6504529964 -22.5231093174
420 2 14.6665267196 -4.5051677734 -5.286263941
421 2 6.2321641284 23.5749518452 -25.4033702328
422 2 -3.0737550522 3.0940503118 -6.0990511022
423 2 -22.8418371443 -25.0272187596 24.2667271644
424 2 -23.9863269895 25.2104567358 -24.1946681397
425 2 12.1016725886 -19.4993489782 11.4859773602
426 2 -15.581224302 -22.1722835064 -8.4127106966
427 2 -13.1830734798 -26.0127706748 -17.0557237508
428 2 23.9821051414 -25.57242866 24.4973551144
429 2 -17.3221125994 -23.917404505 6.2180551244
430 2 18.5328822042 -12.4738789672 15.070858215
431 2 14.1760760344 21.9237099886 -23.1599354925
432 2 15.0637494476 1.427722674 22.8095383782
433 2 -13.3961737056 -20.9014583834 -26.0265106741
434 2 -16.746573767 -5.3927869212 18.3631942984
435 2 -4.7394857706 -6.0482586878 -20.081725251
436 2 15.2643686314 10.1045430724 5.6604781394
437 2 15.3831013266 1.7868510912 -20.0972994208
438 2 -12.9064284706 7.3485119372 -24.0490523654
439 2 -4.5263312794 -8.3933922142 -26.8072693109
440 2 16.4428503232 17.7728410118 -26.1936915184
441 2 9.9078852628 -17.3770291842 4.5733251158
442 2 -10.316123867 -14.7657781362 -19.2518987542
443 2 20.81892071 -14.2535670256 -1.9197470558
444 2 -2.8837718868 16.8470732878 15.5895269082
445 2 -17.9481725192 -25.257960667 -10.6299406752
446 2 -2.2304164708 -1.5892707698 -18.9256551694
447 2 -12.8236194702 -20.341113863 2.625631379
448 2 -5.8195300268 5.6190736392 8.5117450516
449 2 18.8101783982 26.203947679 19.4363468488
450 2 13.9711156186 4.4283822324 14.1467727184
451 2 11.6324939402 5.6063755356 -23.1159805185
452 2 -20.8225564918 10.273525528 -11.4830470286
453 2 10.8961124622 15.5793792784 3.3622299186
454 2 17.4926687516 24.8541501194 -18.2251431208
455 2 8.1650976764 -0.2521170484 -18.4050871872
456 2 25.0960110072 -15.7886266608 2.9900778054
457 2 12.0871837268 -26.5547355042 12.8759855812
458 2 -15.176947072 -25.3049219441 12.8984514568
459 2 -6.5624233528 -18.981765593 -18.8671570682
460 2 -9.1316729812 17.8003535696 -21.4143749442
461 2 -8.3592050122 -12.5198960264 0.714403991
462 2 -12.7391825078 -19.682331907 -13.70744004
463 2 -3.4021149876 -21.6959038394 -4.578914452
464 2 -17.9064424266 7.1018214288 1.8572875804
465 2 11.769893933 -9.452490026 6.0038695906
466 2 -17.8328585442 0.4190916842 -19.5855224334
467 2 -7.1144110016 23.2279788776 22.5542196712
468 2 11.5391031868 14.5065523204 -15.5282070062
469 2 8.0682339374 3.7834379534 -8.3364678096
470 2 -26.5329642257 -14.7858563342 22.6125549762
471 2 6.137959394 11.547948447 -19.27235681
472 2 12.9243360526 -12.1918616834 -20.2935773726
473 2 6.1042605806 -16.34473848 -25.5888982089
474 2 9.8877527994 -21.4514382124 6.1262380676
475 2 -0.1040810372 -25.0807624298 -5.4690298082
476 2 -13.150405709 3.21522495 -3.1543934366
477 2 16.6999597884 -22.4928183711 7.7992403496
478 2 25.6790384648 14.9660174622 16.8126147588
479 2 -4.6249315112 -21.5488446054 -2.280232108
480 2 -20.4459546158 16.3723595686 24.2423077344
481 2 23.1624805398 -3.9629478966 16.7960638118
482 2 -4.6449011784 -12.9093588022 6.2698785814
483 2 -25.2736162349 -22.1233958075 22.4763488222
484 2 17.9036206258 -1.471134994 22.8980452456
485 2 -13.4534237026 -16.104614085 20.4405280758
486 2 -12.5395401012 -22.8665387544 -19.8476785808
487 2 17.8883720484 25.219030669 -1.152868423
488 2 -21.164862635 8.2791092818 -18.0629438402
489 2 22.0065732544 -24.7363887749 16.5050384716
490 2 9.8669148858 -8.1877263482 -6.9750574544
491 2 -25.0442038298 -0.8197331324 16.4399199916
492 2 -24.3194785597 -18.605163717 -23.264591743
493 2 -4.5285018954 -24.5055437633 6.1220596318
494 2 24.2304778772 -3.8260362924 19.035217012
495 2 10.6755778766 -18.3859857664 -26.8328728119
496 2 4.7870765264 -0.0067289096 6.1795809558
497 2 -18.4829580362 -10.4077781276 25.8491604938
498 2 -25.6103113357 0.4198513998 -5.6497335902
499 2 9.5766492612 18.9871378676 9.177907102
500 2 11.4282389746 -24.1853724767 -10.50578144
501 2 2.262053199 -4.9550279394 -15.089037124
502 2 24.147017692 -0.422184812 9.7689115734
503 2 0.7398001982 -13.2881855596 -7.6786083654
504 2 8.5806078442 14.8070198402 -21.986983445
505 2 6.219086167 0.1135774822 12.357859542
506 2 23.6293800414 5.1803921456 24.1795226666
507 2 -3.3746566952 -1.2656319242 -12.5189735146
508 2 26.2814929356 23.4351641748 11.8314308966
509 2 -18.7281291134 6.0160793056 -12.309020682
510 2 -20.8508287652 -21.539293895 -15.2773923274
511 2 19.5337532418 -8.5992208764 0.8200044594
512 2 -20.8587515136 0.0464511824 -20.0480264376
513 2 2.9154628804 13.220950729 9.5712227212
514 2 -12.510073989 21.5419528996 -13.3101087812
515 2 -11.1651603154 11.2747764234 -15.4853373402
516 2 10.8105359264 11.2707065184 12.5455635606
517 2 4.412591001 21.8221794252 -25.0503575262
518 2 14.227031245 7.9242135658 -15.1743423328
519 2 -14.554251607 11.312707938 0.9879558724
520 2 4.779153778 -14.6272928354 -24.5431225528
521 2 -9.4870028204 -7.7527891672 -15.9009560388
522 2 -1.312137372 -1.0968665302 -23.4459684159
523 2 -19.6645871212 23.9305530114 24.0358821528
524 2 -11.3129249996 -8.3772753904 12.0350346774
525 2 6.8162226286 20.964351982 -25.1797099602
526 2 -7.8436837122 -25.4043307304 -4.8487220208
527 2 -24.8732732464 12.0997190342 1.4168153286
528 2 -2.9138891838 6.4131392374 -25.6955894118
529 2 -17.762422055 -7.9922623774 12.8867301304
530 2 -8.433114487 -23.7957631843 23.3249511474
531 2 -16.785102201 20.0353825994 -23.9460891954
532 2 -11.6902323258 -18.8486525668 17.1369590546
533 2 12.2953458012 17.4921260976 -24.8289004288
534 2 -13.349559727 -9.543384571 -19.2749072838
535 2 -9.9141800492 -26.1466922555 1.5346797774
536 2 6.553361031 -4.9266471352 -6.43587644
537 2 -26.1175191764 16.3809335018 -15.5610375732
538 2 -16.757426847 -0.666379112 -23.453706662
539 2 23.9315297886 16.28775981 1.3125714952
540 2 22.4125327118 -3.2636296868 5.1859272164
541 2 18.24131421 -24.9621925308 23.632853027
542 2 -18.2481516504 -16.046007453 24.9276797364
543 2 -25.2095613567 16.7721327704 0.8342762596
544 2 9.8911172542 5.5304039756 -0.3272746274
545 2 -7.2540901412 7.5611237744 7.404785157
546 2 -11.3159095966 -9.9941129834 13.8185213138
547 2 17.6447746678 26.7460047596 -16.40714369
548 2 2.7288441698 -6.4880797548 -6.6475115
549 2 -11.0599939702 19.3681895064 0.7638940358
550 2 3.3624469802 -14.253078637 -15.9360657526
551 2 3.7886474318 -11.158865529 23.6136430754
552 2 -22.401571101 -21.8301401594 -25.652410433
553 2 1.9271271502 -21.222655286 -21.8888281895
554 2 -12.577363085 9.9730037428 -9.0969431252
555 2 -16.9341149894 21.90151544 -5.9947530034
556 2 -20.3705257098 -2.7484882446 -2.2073536758
557 2 -21.626118535 -11.8521602794 -6.9189470308
558 2 11.9148368164 -0.9593037412 -17.7079395934
559 2 26.6270550028 -19.2291615516 17.1872630804
560 2 -13.2524789264 -0.8397027996 -17.7770194476
561 2 9.4829871808 9.6868622886 -8.9177587744
562 2 7.8154657042 16.9719922386 -26.2345913504
563 2 20.0670193276 8.452650031 16.4443697544
564 2 3.7798021716 0.5613212976 16.9858299156
565 2 -0.28218008 10.2361909328 8.2953889018
566 2 6.7119787952 -24.2418193458 13.386731526
567 2 -26.5953802888 -26.152194767 -1.5359278816
568 2 19.8163131796 7.1207600534 -12.4112566956
569 2 14.484520568 7.927089632 19.4600608286
570 2 -0.8023682044 0.5634919136 -19.6931307216
571 2 23.6956923602 -21.074239417 27.1292812798
572 2 20.518833048 14.3180343208 -7.174157207
573 2 -15.1917615262 5.0607369386 11.7584439336
574 2 -11.0197290434 11.5938569754 -19.593065324
575 2 -0.8509900028 -1.9735240672 -21.0199197516
576 2 0.828361331 0.2281317416 -24.2627657902
577 2 -11.388136844 -1.9027619856 -7.1438771138
578 2 15.3020830844 -2.2694332934 -26.0003004859
579 2 12.1631010214 -1.775021234 -0.9078058766
580 2 -22.9017461459 -18.242670845 4.2557097296
581 2 7.8606687824 25.782576848 21.9863865256
582 2 24.7869695542 0.706264181 -26.8914875837
583 2 11.4221612498 21.3388917728 19.8946181518
584 2 3.7693832148 11.1948977546 10.6746010994
585 2 -1.220700173 4.6880964368 -6.5981842514
586 2 -5.2638523308 -21.4955017172 -6.2467072556
587 2 16.5348844416 -10.9179814184 14.8518430606
588 2 10.6903380654 -3.1592773226 -7.2004216606
589 2 -16.1677247452 -5.9636046638 -23.6067839288
590 2 -24.8984795247 -6.3332063032 4.3428056966
591 2 10.3171006442 -2.1150482304 17.7991597308
592 2 1.8198444544 23.0382670392 22.855501172
593 2 21.33986855 0.0272954962 -12.843534872
594 2 5.2742712876 12.073508846 8.9342011906
595 2 19.7804980156 -7.740145329 -12.5872393878
596 2 25.392951276 -16.5727616908 -1.4055823908
597 2 8.7881729992 -1.7757809496 -26.8915966572
598 2 -18.9406324198 -8.522652397 -19.7600399598
599 2 -13.4436559306 -6.912597979 4.5552004722
600 2 -16.254657916 20.338400593 -3.885673967
601 2 26.480701219 7.7237029128 -8.5358388892
602 2 15.4855001364 -26.3775101344 15.7295316402
603 2 19.771869817 -19.4409594078 9.1986364848
604 2 -6.1720380652 -12.9076765748 4.2410580716
605 2 -1.0162281458 -9.5350819648 26.251158577
606 2 -9.3978447682 2.7221695256 -5.7004174738
607 2 -22.0588037019 12.3634488782 -4.842372969
608 2 -16.3655763936 -11.0388304642 22.817786719
609 2 14.456845214 18.993975308 -6.9335444234
610 2 -20.681629248 22.7340552068 -12.3631232858
611 2 9.8024475906 -3.30204959 -14.063149737
612 2 11.1842074708 12.8696907948 23.6623734046
613 2 3.041033016 24.921927604 23.824952543
614 2 26.330657388 10.9962863906 22.2001922016
615 2 25.12759347 14.2702807688 21.0013609848
616 2 12.8764197044 -2.8277157286 -25.9705576201
617 2 -11.3440733392 -25.4135884076 -20.1827131604
618 2 1.048136201 -3.0220943914 -11.1155074744
619 2 -4.302160912 -19.5270243322 16.1782522328
620 2 19.2415883282 -20.6809780632 -14.2529701062
621 2 -14.0323269898 16.6492759048 -3.9717931568
622 2 12.569494602 23.9811826296 -22.2051032203
623 2 -13.7906831636 -25.4123999954 -10.13948999
624 2 5.0291544758 -24.2412007202 -11.3951370806
625 2 4.1037123442 22.3772059364 -2.991922829
626 2 1.875140897 8.5706230106 -7.6667785082
627 2 -0.4849156144 -8.3634919788 -1.8315657808